#     Step Nr.          Time[fs]        Kin.[a.u.]          Temp[K]            Pot.[a.u.]        Cons Qty[a.u.]        UsedTime[s]
         0            0.000000         0.078378680       300.000000000      -152.880642145      -152.802263465         0.000000000
         1            1.000000         0.076209546       291.697486078      -152.878417988      -152.802237303         3.447583914
         2            2.000000         0.073030995       279.531352723      -152.872849694      -152.802169050         1.001726151
         3            3.000000         0.062628586       239.715392052      -152.864872558      -152.802072871         1.381747961
         4            4.000000         0.054774703       209.654093447      -152.856215984      -152.801973358         0.965415955
         5            5.000000         0.048658064       186.242220141      -152.848300111      -152.801891148         0.939040899
         6            6.000000         0.043833176       167.774616258      -152.842143547      -152.801841566         0.944745064
         7            7.000000         0.041717149       159.675371910      -152.838715050      -152.801834512         1.175514936
         8            8.000000         0.041650536       159.420402325      -152.838104533      -152.801866766         0.765902042
         9            9.000000         0.042155947       161.354901819      -152.839827371      -152.801925468         0.768238068
        10           10.000000         0.047498101       181.802376623      -152.842993995      -152.801995763         1.129235983
        11           11.000000         0.047521017       181.890090585      -152.846390360      -152.802059979         0.862966061
        12           12.000000         0.054215586       207.514032176      -152.848961288      -152.802105464         1.130178928
        13           13.000000         0.055614676       212.869147777      -152.849830596      -152.802123166         0.678946972
        14           14.000000         0.060170103       230.305372275      -152.848702595      -152.802110583         0.654762030
        15           15.000000         0.058620333       224.373516659      -152.845470785      -152.802067458         0.912861109
        16           16.000000         0.055119181       210.972606898      -152.840567137      -152.801998022         1.532145023
        17           17.000000         0.051493825       197.096296609      -152.835121524      -152.801915769         1.392868996
        18           18.000000         0.047232969       180.787564326      -152.830343230      -152.801837412         0.740250826
        19           19.000000         0.046649205       178.553167851      -152.827404606      -152.801781068         0.761646986
        20           20.000000         0.046257942       177.055580250      -152.827164786      -152.801763317         0.756487131
        21           21.000000         0.053413594       204.444350769      -152.829879435      -152.801792355         0.804900885
        22           22.000000         0.062327604       238.563361848      -152.835122957      -152.801864163         0.928248167
        23           23.000000         0.070213456       268.747021495      -152.841528391      -152.801958555         1.147837877
        24           24.000000         0.077794426       297.763726848      -152.847495167      -152.802048255         0.713227987
        25           25.000000         0.081756043       312.927097466      -152.851522896      -152.802105356         0.751393080
        26           26.000000         0.078319661       299.774102475      -152.852817755      -152.802114580         0.747071028
        27           27.000000         0.078392132       300.051489313      -152.851331100      -152.802075959         0.729326010
        28           28.000000         0.074700655       285.922096300      -152.847753938      -152.802007995         0.874902964
        29           29.000000         0.073539783       281.478776610      -152.843041470      -152.801937348         1.297456980
        30           30.000000         0.069059147       264.328823930      -152.838191527      -152.801890060         1.158876896
        31           31.000000         0.071052742       271.959450480      -152.833812597      -152.801876136         1.169705153
        32           32.000000         0.064682755       247.577869533      -152.829948576      -152.801884438         1.231345892
        33           33.000000         0.060789655       232.676750018      -152.826772872      -152.801896414         1.306370974
        34           34.000000         0.059792733       228.860960083      -152.823891232      -152.801897652         1.151432037
        35           35.000000         0.056801179       217.410574983      -152.821175308      -152.801882303         1.196260929
        36           36.000000         0.054864140       209.996419440      -152.818779445      -152.801856766         0.791717052
        37           37.000000         0.052416786       200.628996284      -152.817166011      -152.801833976         0.814433098
        38           38.000000         0.056678409       216.940663594      -152.816596579      -152.801819214         1.045353889
        39           39.000000         0.060126086       230.136892438      -152.817148054      -152.801813788         1.182608128
        40           40.000000         0.060637657       232.094968790      -152.818755520      -152.801817968         1.088078022
        41           41.000000         0.060028354       229.762816852      -152.821265552      -152.801834518         1.335368872
        42           42.000000         0.066639472       255.067342793      -152.824517047      -152.801862701         0.951313972
        43           43.000000         0.070062966       268.171012712      -152.828028131      -152.801896355         0.877964973
        44           44.000000         0.073880917       282.784489715      -152.831153256      -152.801926742         1.095472097
        45           45.000000         0.073269063       280.442576314      -152.833273360      -152.801947503         1.076418877
        46           46.000000         0.074889675       286.645583026      -152.834190529      -152.801956681         1.010923147
        47           47.000000         0.073842300       282.636681667      -152.833722301      -152.801953024         1.207525969
        48           48.000000         0.070220128       268.772561148      -152.831989745      -152.801938059         1.285243034
        49           49.000000         0.068562172       262.426615879      -152.829333922      -152.801914591         1.116086006
        50           50.000000         0.067541248       258.518953943      -152.826066341      -152.801882890         0.911423922
        51           51.000000         0.064758188       247.866594607      -152.822759096      -152.801844688         1.177417040
        52           52.000000         0.060125025       230.132829984      -152.819947187      -152.801803484         1.724373102
        53           53.000000         0.057491530       220.052942650      -152.818359245      -152.801769836         0.881555796
        54           54.000000         0.058365071       223.396480062      -152.818596013      -152.801757835         1.091193199
        55           55.000000         0.064294140       246.090416909      -152.820834556      -152.801776781         1.025103807
        56           56.000000         0.066020967       252.699971231      -152.824673710      -152.801823138         1.271061182
        57           57.000000         0.068986265       264.049860617      -152.829167186      -152.801880431         0.796443939
        58           58.000000         0.074812051       286.348471845      -152.833781876      -152.801935423         0.974072933
        59           59.000000         0.073936701       282.998008789      -152.837657451      -152.801973170         1.190181017
        60           60.000000         0.077866803       298.040754973      -152.840186996      -152.801987919         0.735410929
        61           61.000000         0.077651769       297.217697189      -152.841201314      -152.801982377         0.682646036
        62           62.000000         0.074582451       285.469661885      -152.840896667      -152.801964693         0.739638090
        63           63.000000         0.078313339       299.749904302      -152.839516155      -152.801941125         0.714570999
        64           64.000000         0.074593921       285.513564495      -152.837337664      -152.801918581         1.625007868
        65           65.000000         0.070669699       270.493326298      -152.834707068      -152.801900610         0.688705206
        66           66.000000         0.065212228       249.604464036      -152.831992973      -152.801888613         0.780233860
        67           67.000000         0.063471828       242.942958101      -152.829500642      -152.801881440         1.056370974
        68           68.000000         0.059131771       226.331081278      -152.827337996      -152.801874569         1.042773008
        69           69.000000         0.058446568       223.708418281      -152.825680804      -152.801865689         1.545300007
        70           70.000000         0.060298655       230.797410900      -152.824582767      -152.801853901         0.974431992
        71           71.000000         0.059786053       228.835392093      -152.824107936      -152.801841878         1.233108997
        72           72.000000         0.061372259       234.906707703      -152.824424834      -152.801836145         1.143485069
        73           73.000000         0.067897434       259.882283653      -152.825560417      -152.801841740         1.483543873
        74           74.000000         0.068514947       262.245856570      -152.827268082      -152.801858310         1.047843218
        75           75.000000         0.072315260       276.791827508      -152.829246882      -152.801881826         1.268458843
        76           76.000000         0.075983406       290.831918535      -152.831115768      -152.801904144         1.144122124
        77           77.000000         0.074633176       285.663816008      -152.832495832      -152.801916923         1.338881969
        78           78.000000         0.076923969       294.431989840      -152.833316485      -152.801919647         1.205740929
        79           79.000000         0.072575192       277.786734578      -152.833591498      -152.801917995         1.275955915
        80           80.000000         0.074309979       284.426757614      -152.833386925      -152.801919551         1.165773153
        81           81.000000         0.077947221       298.348559817      -152.832713868      -152.801927003         1.000783920
        82           82.000000         0.077721457       297.484433298      -152.831288105      -152.801932044         1.007323027
        83           83.000000         0.072822894       278.734834757      -152.828935745      -152.801921740         0.875313997
        84           84.000000         0.069766030       267.034467201      -152.825922139      -152.801889904         1.368243933
        85           85.000000         0.068934281       263.850887906      -152.822693301      -152.801841270         1.055281162
        86           86.000000         0.063626846       243.536300157      -152.820067546      -152.801791531         0.773895979
        87           87.000000         0.061950421       237.119666383      -152.818899218      -152.801761619         0.764968872
        88           88.000000         0.063797226       244.188443286      -152.819690914      -152.801766772         0.897881031
        89           89.000000         0.066909117       256.099430102      -152.822337803      -152.801807096         1.623620987
        90           90.000000         0.070898026       271.367261377      -152.826077319      -152.801867273         0.772022009
        91           91.000000         0.076882351       294.272693664      -152.829967921      -152.801926071         0.778905153
        92           92.000000         0.079600346       304.676016237      -152.832874213      -152.801964042         0.812936783
        93           93.000000         0.078063967       298.795412619      -152.834286426      -152.801974490         1.054242134
        94           94.000000         0.075829754       290.243806301      -152.833931402      -152.801958525         1.201088905
        95           95.000000         0.074760621       286.151619829      -152.832079052      -152.801927150         0.943628073
        96           96.000000         0.069082192       264.417029523      -152.829287354      -152.801891875         1.066679955
        97           97.000000         0.067578803       258.662698663      -152.825978744      -152.801860179         0.762988091
        98           98.000000         0.060581292       231.879226568      -152.822911911      -152.801840280         0.804097891
        99           99.000000         0.059762940       228.746924165      -152.820373490      -152.801831057         0.744934082
       100          100.000000         0.060552745       231.769961345      -152.818386004      -152.801828752         0.813631058
       101          101.000000         0.056773233       217.303607852      -152.816969162      -152.801828467         1.142546892
       102          102.000000         0.054392074       208.189553167      -152.816108910      -152.801828229         1.816852093
       103          103.000000         0.055210030       211.320337916      -152.815948566      -152.801829901         1.307591915
       104          104.000000         0.057674513       220.753321990      -152.816439239      -152.801835962         1.492640972
       105          105.000000         0.061058733       233.706666068      -152.817298082      -152.801846772         1.427917957
       106          106.000000         0.063011878       241.182466055      -152.818273060      -152.801861540         1.307708025
       107          107.000000         0.060998119       233.474662039      -152.819148065      -152.801877598         1.487578154
       108          108.000000         0.062307917       238.488008345      -152.819836001      -152.801890705         1.271301985
       109          109.000000         0.062262874       238.315599573      -152.820222612      -152.801896263         1.196491003
       110          110.000000         0.063051029       241.332319503      -152.820152600      -152.801888946         1.369092941
       111          111.000000         0.063975604       244.871196341      -152.819655144      -152.801868524         1.244251013
       112          112.000000         0.064988796       248.749263056      -152.819095541      -152.801843345         1.798011065
       113          113.000000         0.065704498       251.488661851      -152.818890524      -152.801824747         1.135898829
       114          114.000000         0.068886883       263.669469582      -152.819261165      -152.801820510         1.218917131
       115          115.000000         0.066085368       252.946470504      -152.820218206      -152.801832016         1.160272837
       116          116.000000         0.064776755       247.937661973      -152.821643002      -152.801855398         0.953918219
       117          117.000000         0.065824664       251.948607503      -152.823402176      -152.801885391         1.036107779
       118          118.000000         0.066319056       253.840927345      -152.825118193      -152.801914009         0.745702028
       119          119.000000         0.065209561       249.594257101      -152.826332221      -152.801933084         0.786244154
       120          120.000000         0.065150041       249.366438775      -152.826852991      -152.801939532         0.874461889
       121          121.000000         0.064896389       248.395567593      -152.826677434      -152.801933491         0.770286083
       122          122.000000         0.065413990       250.376723271      -152.825853465      -152.801915383         0.822691917
       123          123.000000         0.063117366       241.586228937      -152.824670485      -152.801889935         0.782282114
       124          124.000000         0.062159876       237.921369121      -152.823518305      -152.801863037         1.440146923
       125          125.000000         0.065545983       250.881935755      -152.822767866      -152.801841173         1.124619961
       126          126.000000         0.066815361       255.740570407      -152.822636930      -152.801829077         0.760664940
       127          127.000000         0.069482428       265.948960611      -152.823133816      -152.801829333         0.769267082
       128          128.000000         0.077260524       295.720177038      -152.824096518      -152.801841587         0.879390955
       129          129.000000         0.075378450       288.516407884      -152.825162629      -152.801860759         0.864997149
       130          130.000000         0.076523160       292.897864762      -152.825884849      -152.801879440         1.165700912
       131          131.000000         0.076913500       294.391921056      -152.826007578      -152.801891827         0.820674896
       132          132.000000         0.076056863       291.113079697      -152.825274594      -152.801893252         0.772555113
       133          133.000000         0.074042719       283.403798468      -152.823630459      -152.801881756         0.839126110
       134          134.000000         0.072698572       278.258981154      -152.821240736      -152.801859621         0.893338919
       135          135.000000         0.071392586       273.260226701      -152.818297134      -152.801829262         0.787280083
       136          136.000000         0.070694852       270.589598693      -152.815356235      -152.801798718         1.097895861
       137          137.000000         0.065451235       250.519281622      -152.812829982      -152.801773193         1.273694992
       138          138.000000         0.064857341       248.246110736      -152.811185275      -152.801758720         1.269563913
       139          139.000000         0.064607244       247.288844917      -152.810570287      -152.801755679         0.774037123
       140          140.000000         0.066777356       255.595102496      -152.811032043      -152.801763189         0.833717108
       141          141.000000         0.073439182       281.093719075      -152.812403301      -152.801778153         0.807660818
       142          142.000000         0.076473090       292.706219750      -152.814209455      -152.801796033         0.969810009
       143          143.000000         0.074452156       284.970949260      -152.816017792      -152.801812580         1.020225048
       144          144.000000         0.081142467       310.578592510      -152.817573880      -152.801825139         0.767786026
       145          145.000000         0.087151586       333.578926900      -152.818605179      -152.801827837         0.745339870
       146          146.000000         0.086823747       332.324097133      -152.818952226      -152.801813662         0.849446058
       147          147.000000         0.084361320       322.898981717      -152.818948656      -152.801783882         0.801468134
       148          148.000000         0.081506899       311.973481848      -152.819218667      -152.801753037         0.778734922
       149          149.000000         0.083566948       319.858465960      -152.820336711      -152.801743370         0.804696083
       150          150.000000         0.082290834       314.974049641      -152.822535817      -152.801771042         0.900681973
       151          151.000000         0.087924309       336.536579217      -152.825363681      -152.801831839         1.266123056
       152          152.000000         0.087592063       335.264881941      -152.827970995      -152.801903261         1.541644812
       153          153.000000         0.085017348       325.409976331      -152.829321862      -152.801958372         0.776606083
       154          154.000000         0.081824127       313.187697327      -152.828690171      -152.801977531         0.766793966
       155          155.000000         0.080220736       307.050600887      -152.825955655      -152.801958255         0.910495996
       156          156.000000         0.075680683       289.673223329      -152.821337118      -152.801904644         1.041583061
       157          157.000000         0.072656278       278.097097954      -152.815944075      -152.801834509         0.766408920
       158          158.000000         0.068365149       261.672495029      -152.810455681      -152.801761287         0.796851158
       159          159.000000         0.061221868       234.331075870      -152.806168298      -152.801707781         0.813198805
       160          160.000000         0.057106995       218.581106038      -152.803993334      -152.801688750         0.771752119
       161          161.000000         0.059812381       228.936164127      -152.804293232      -152.801705264         0.797083855
       162          162.000000         0.060377454       231.099020382      -152.806847144      -152.801745799         0.876085997
       163          163.000000         0.061782860       236.478314946      -152.811018404      -152.801793315         0.928103209
       164          164.000000         0.066158454       253.226213053      -152.816137354      -152.801837724         1.242807865
       165          165.000000         0.069259981       265.097530310      -152.821525568      -152.801877368         1.522980928
       166          166.000000         0.077554333       296.844755481      -152.826835195      -152.801915090         0.777566195
       167          167.000000         0.079000491       302.380027720      -152.831380417      -152.801949394         0.767525911
       168          168.000000         0.081124856       310.511184905      -152.834566055      -152.801974946         1.071456909
       169          169.000000         0.085088559       325.682543359      -152.835968792      -152.801986648         0.967433214
       170          170.000000         0.079428235       304.017249204      -152.835471835      -152.801979741         0.774014950
       171          171.000000         0.072348299       276.918285785      -152.833390259      -152.801955060         0.800037861
       172          172.000000         0.067353272       257.799465120      -152.830376215      -152.801918551         0.727533102
       173          173.000000         0.067472889       258.257305800      -152.826935171      -152.801877406         0.774168015
       174          174.000000         0.063218390       241.972908706      -152.823779298      -152.801843746         0.800516844
       175          175.000000         0.061154028       234.071415413      -152.821352331      -152.801826600         0.793411016
       176          176.000000         0.062947432       240.935795806      -152.819892581      -152.801830391         0.877865076
       177          177.000000         0.060579924       231.873990081      -152.819310058      -152.801850791         1.163805962
       178          178.000000         0.060602811       231.961591760      -152.819321966      -152.801877617         1.339704037
       179          179.000000         0.065876405       252.146648873      -152.819453887      -152.801898527         0.973952055
       180          180.000000         0.064969713       248.676219683      -152.819214273      -152.801900842         0.795286894
       181          181.000000         0.066465646       254.402012925      -152.818445167      -152.801880266         0.922986031
       182          182.000000         0.064070919       245.236021201      -152.817477033      -152.801846471         1.140804052
       183          183.000000         0.067609708       258.780992287      -152.816815410      -152.801814826         0.784727097
       184          184.000000         0.070524425       269.937279188      -152.816703851      -152.801798228         0.812959909
       185          185.000000         0.068783920       263.275370585      -152.817249104      -152.801803402         0.924359083
       186          186.000000         0.072419740       277.191733611      -152.818415879      -152.801826740         0.835724831
       187          187.000000         0.071262873       272.763741911      -152.819825487      -152.801856748         0.773025036
       188          188.000000         0.076044603       291.066155183      -152.820966121      -152.801881180         0.781467915
       189          189.000000         0.082348820       315.195996271      -152.821405944      -152.801891853         1.067912102
       190          190.000000         0.083720012       320.444332345      -152.820654499      -152.801882899         0.930839062
       191          191.000000         0.082103330       314.256365419      -152.818770489      -152.801857244         1.142004013
       192          192.000000         0.080428257       307.844904880      -152.816028976      -152.801820404         1.183328867
       193          193.000000         0.077065399       294.973324568      -152.812984136      -152.801781672         0.866163015
       194          194.000000         0.072551957       277.697803870      -152.810220711      -152.801748240         1.062960148
       195          195.000000         0.071221183       272.604168676      -152.808370809      -152.801725896         0.975091934
       196          196.000000         0.069702185       266.790097636      -152.807782976      -152.801716423         0.797257900
       197          197.000000         0.077860596       298.016997931      -152.808515766      -152.801719763         0.894996166
       198          198.000000         0.085206351       326.133400205      -152.810363988      -152.801735563         1.168103933
       199          199.000000         0.082947966       317.489269813      -152.812916053      -152.801762614         1.075469971
       200          200.000000         0.086176302       329.845956901      -152.815721651      -152.801797276         1.038577080
