#     Step Nr.          Time[fs]        Kin.[a.u.]          Temp[K]            Pot.[a.u.]        Cons Qty[a.u.]        UsedTime[s]
         0            0.000000         0.078378680       300.000000000      -152.880642145      -152.802263465         0.000000000
         1            1.000000         0.076209546       291.697486078      -152.878417988      -152.802237303         2.371870995
         2            2.000000         0.073030995       279.531352723      -152.872849694      -152.802169050         0.757960081
         3            3.000000         0.062628586       239.715392052      -152.864872558      -152.802072871         0.858736992
         4            4.000000         0.054774703       209.654093447      -152.856215984      -152.801973358         0.912528038
         5            5.000000         0.048658064       186.242220141      -152.848300111      -152.801891148         0.879848003
         6            6.000000         0.043833176       167.774616258      -152.842143547      -152.801841566         0.867899895
         7            7.000000         0.041717149       159.675371910      -152.838715050      -152.801834512         0.932488918
         8            8.000000         0.041650536       159.420402325      -152.838104533      -152.801866766         0.926653147
         9            9.000000         0.042155947       161.354901819      -152.839827371      -152.801925468         0.877944946
        10           10.000000         0.047498101       181.802376623      -152.842993995      -152.801995763         0.919632912
