      56
 i =        0, time =        0.000, E =      -152.8806421447
  C         0.6247542056        0.6649731390        7.5012915913
  C         1.7053322936        2.6812013380        7.5000697553
  C         5.3332818897        0.6651506420        7.5007381623
  C         4.2534774686        2.6818588970        7.4999803483
  C         7.7456401736        0.6644669760        7.5007231413
  C         6.5398839856        2.7537516350        7.5002049383
  C         8.8262699986        2.6807712310        7.5000788153
  C        12.4541376976        0.6654531950        7.5011379903
  C        11.3742932226        2.6822284450        7.4999936403
  C        13.6603764446        2.7540811290        7.5001474203
  C         2.9783712776        4.8884466880        7.4999232473
  C         1.7715556766        6.8317903270        7.5011167703
  C         0.6906420136        8.8480137580        7.4999035183
  C         4.1836699396        6.8326967950        7.5005577983
  C         2.9772168546        8.9212759730        7.4996213493
  C         5.2631424816        8.8496083010        7.4997421083
  C        10.0992545037        4.8882049320        7.5000804243
  C         8.8920477776        6.8314203020        7.5005704943
  C         7.8110259916        8.8475445500        7.4997832953
  C         6.5390018376       11.0552824730        7.4999914943
  C        11.3042296316        6.8323611010        7.5011561093
  C        10.0975188166        8.9209173910        7.4998619733
  C        12.3837431816        8.8494147060        7.5000329793
  C        13.6595286276       11.0557698010        7.5003921573
  N         5.3536919506       11.6692265270        7.5006883923
  N         6.5376786146        9.5841511480        7.4997155843
  N         7.7499598416        7.5139521350        7.5000977103
  N         8.9134863766        5.5014947650        7.4998252573
  N         7.7247733026       11.6686323870        7.4996401843
  N         8.9350069907        9.5675085780        7.4990816293
  N        10.0978192237        7.5282858600        7.5015569513
  N        11.2846259026        5.5022820230        7.5006015483
  N        11.2592266946        9.5690249200        7.4985634863
  N        12.4453419597        7.5159543750        7.5012428943
  N        13.6584414396        9.5844076870        7.4999422613
  N        12.4742640407       11.6698340170        7.5006607953
  N         0.5811368076        3.4010745280        7.4988826693
  N         1.7664033326        1.3477175230        7.5011021673
  N         2.9791237266        3.4172645800        7.4997621953
  N         5.3778513816        3.4015713920        7.4998919543
  N         7.7021845726        3.4004598850        7.4990841923
  N         8.8874596506        1.3469569680        7.5009893363
  N         6.5396388916        1.3610062590        7.5013489903
  N         4.1920594126        1.3483171460        7.5000251113
  N        10.1000517757        3.4169822920        7.4998491583
  N        11.3128470326        1.3487250800        7.5005448043
  N        12.4986399556        3.4018217320        7.4991467773
  N        13.6602763087        1.3615519990        7.5019799053
  N         5.3247102646        7.5160831210        7.5009440963
  N         4.1388033776        9.5693072070        7.4980197133
  N         0.6038378626       11.6692064990        7.5005604213
  N         1.8146406556        9.5680264230        7.4987837853
  N         2.9773553756        7.5285819760        7.5016004023
  N         4.1637138276        5.5025504820        7.4989364323
  N         1.7925940896        5.5017293690        7.5011208233
  N         0.6296368986        7.5144828550        7.5005868253
      56
 i =        1, time =        1.000, E =      -152.8784179876
  C         0.6321696235        0.6605892519        7.5000051045
  C         1.7086193032        2.6795521027        7.4978236707
  C         5.3317853141        0.6620584936        7.4961191443
  C         4.2626207541        2.6753496784        7.5033113190
  C         7.7545272472        0.6610278364        7.5020095762
  C         6.5431050516        2.7503915995        7.5065830562
  C         8.8270494035        2.6778063330        7.5040651657
  C        12.4474904687        0.6600974421        7.4976116997
  C        11.3687941224        2.6869308565        7.4956518098
  C        13.6597336823        2.7634279772        7.4971118256
  C         2.9766857284        4.8956151466        7.4967881150
  C         1.7753207903        6.8303013332        7.5069204627
  C         0.6905417530        8.8500050974        7.4943172415
  C         4.1805889694        6.8316418350        7.5048012932
  C         2.9768824687        8.9295512040        7.4998163832
  C         5.2729827371        8.8526610118        7.5011355556
  C        10.0991449356        4.8808779376        7.5052815371
  C         8.8908775182        6.8333862691        7.5023187049
  C         7.8135371271        8.8479122581        7.4988097190
  C         6.5361916478       11.0589430879        7.5022558328
  C        11.3071926749        6.8318439089        7.5108037478
  C        10.0925174007        8.9209318849        7.4978585954
  C        12.3913215286        8.8497951695        7.4973714522
  C        13.6468383025       11.0540478580        7.5011074472
  N         5.3495846076       11.6727464651        7.4979114354
  N         6.5443464735        9.5884625401        7.5053088799
  N         7.7526712554        7.5075082520        7.5021373462
  N         8.9154749402        5.5018091856        7.4999024495
  N         7.7175900783       11.6677002147        7.5022217048
  N         8.9297168651        9.5674215936        7.4973652900
  N        10.0976852083        7.5337768650        7.5054991628
  N        11.2817032968        5.5049056973        7.5049200773
  N        11.2683782434        9.5736485195        7.5037101089
  N        12.4469083366        7.5120155776        7.4980288877
  N        13.6668612578        9.5874390273        7.4969851959
  N        12.4693646762       11.6651421351        7.5012946334
  N         0.5739930485        3.4043802646        7.4968305578
  N         1.7644540522        1.3555305530        7.5033163553
  N         2.9794761968        3.4159183059        7.4994930814
  N         5.3716419483        3.4010569198        7.5004041712
  N         7.7032703684        3.4007388378        7.4920868734
  N         8.8853183718        1.3424276802        7.4984939465
  N         6.5374967458        1.3589227932        7.4994983811
  N         4.1936433034        1.3456868657        7.4995281915
  N        10.0931506971        3.4097719726        7.4994197017
  N        11.3121094303        1.3465732749        7.4962172128
  N        12.5014765475        3.4026359724        7.4901868129
  N        13.6625877588        1.3678257308        7.5018471473
  N         5.3181298685        7.5150587568        7.4991989883
  N         4.1418645176        9.5668624203        7.4993080325
  N         0.6063405505       11.6689636972        7.5002372877
  N         1.8197685018        9.5633211831        7.5036305977
  N         2.9799004314        7.5375714135        7.5058438670
  N         4.1640326792        5.5030422533        7.4997868115
  N         1.7863397513        5.5005001579        7.4936514305
  N         0.6264614937        7.5104685712        7.4995539383
      56
 i =        2, time =        2.000, E =      -152.8728496941
  C         0.6392055654        0.6564174771        7.4987306613
  C         1.7125919570        2.6787454718        7.4955781006
  C         5.3304470482        0.6591516857        7.4914787100
  C         4.2705715033        2.6694180567        7.5066436369
  C         7.7629284090        0.6576298257        7.5032821794
  C         6.5461171051        2.7469398363        7.5129290598
  C         8.8286501383        2.6753501154        7.5080084531
  C        12.4411659495        0.6551055557        7.4940642697
  C        11.3626310561        2.6920216292        7.4912555376
  C        13.6592013987        2.7723717891        7.4940265726
  C         2.9749859845        4.9015231362        7.4936300831
  C         1.7790745833        6.8290698335        7.5127125195
  C         0.6896451386        8.8523337188        7.4887416314
  C         4.1773629184        6.8308506932        7.5090521051
  C         2.9767992229        8.9374946724        7.5000504149
  C         5.2835251963        8.8561431716        7.5025476282
  C        10.0989437300        4.8726834916        7.5105055612
  C         8.8900211025        6.8353024342        7.5040894422
  C         7.8150075988        8.8486664303        7.4978574514
  C         6.5332695379       11.0615499496        7.5045364173
  C        11.3099244427        6.8314783865        7.5204821074
  C        10.0879093367        8.9209747575        7.4958789801
  C        12.3997578818        8.8506471242        7.4947071306
  C        13.6345985163       11.0513676108        7.5018125538
  N         5.3459001668       11.6762382852        7.4950981490
  N         6.5509823905        9.5927102316        7.5109432353
  N         7.7556087842        7.5015336070        7.5041912102
  N         8.9179490162        5.5022262965        7.5000018301
  N         7.7100784436       11.6669182327        7.5048397665
  N         8.9244720487        9.5669309149        7.4956150707
  N        10.0975706412        7.5392644301        7.5094899986
  N        11.2783183214        5.5075391768        7.5093284698
  N        11.2774334284        9.5776390988        7.5088902729
  N        12.4481941489        7.5084532692        7.4947945238
  N        13.6751776723        9.5904265325        7.4939879934
  N        12.4647788889       11.6605916948        7.5019253020
  N         0.5671874471        3.4072895775        7.4947441174
  N         1.7622974155        1.3635163323        7.5055397463
  N         2.9798561455        3.4146040225        7.4992132354
  N         5.3657024260        3.4000258468        7.5009542241
  N         7.7044533260        3.4004867930        7.4850789699
  N         8.8829956068        1.3382393377        7.4960133895
  N         6.5355003127        1.3568614210        7.4976609545
  N         4.1955450618        1.3432857366        7.4990252130
  N        10.0863113701        3.4025967800        7.4989948368
  N        11.3116649122        1.3447925646        7.4918416477
  N        12.5037929725        3.4031004384        7.4811349413
  N        13.6648027083        1.3738517503        7.5016939506
  N         5.3113647861        7.5144137164        7.4974497014
  N         4.1452057731        9.5640712240        7.5006157126
  N         0.6081927776       11.6687763640        7.4999073867
  N         1.8246159894        9.5583287734        7.5084964384
  N         2.9823378211        7.5463559014        7.5101461169
  N         4.1638257146        5.5036993063        7.5006614195
  N         1.7806083316        5.4995037294        7.4861294517
  N         0.6237388316        7.5068560334        7.4985015669
      56
 i =        3, time =        3.000, E =      -152.8648725581
  C         0.6455464699        0.6526413334        7.4974958112
  C         1.7170023896        2.6790833615        7.4933604071
  C         5.3293181878        0.6565887301        7.4868530888
  C         4.2769599336        2.6641652968        7.5099377085
  C         7.7703904514        0.6542711685        7.5045121877
  C         6.5487079329        2.7434723421        7.5191300665
  C         8.8309471015        2.6734089818        7.5118149856
  C        12.4354158151        0.6507979182        7.4905195467
  C        11.3561249086        2.6972999256        7.4868027508
  C        13.6588768119        2.7805334688        7.4908829832
  C         2.9732760575        4.9059070775        7.4904641683
  C         1.7826442126        6.8282775333        7.5184073720
  C         0.6880886553        8.8547829317        7.4832580781
  C         4.1740141240        6.8305212532        7.5132659746
  C         2.9772425434        8.9448061504        7.5003596254
  C         5.2944252590        8.8599088507        7.5039795942
  C        10.0985641373        4.8639093777        7.5157107332
  C         8.8896861302        6.8370169234        7.5058846133
  C         7.8152961195        8.8496589875        7.4969606985
  C         6.5301626390       11.0630682414        7.5068203477
  C        11.3122901233        6.8313399737        7.5301025293
  C        10.0840973597        8.9211856310        7.4939752540
  C        12.4088855726        8.8518983044        7.4920706628
  C        13.6233705164       11.0478423403        7.5024873933
  N         5.3426653617       11.6794600872        7.4922469021
  N         6.5574682173        9.5967778013        7.5165900614
  N         7.7585943828        7.4962671125        7.5062475989
  N         8.9209185629        5.5026838575        7.5001434831
  N         7.7024463389       11.6662856170        7.5074973122
  N         8.9194574668        9.5661065608        7.4938176050
  N        10.0974925294        7.5446817240        7.5135326860
  N        11.2744966716        5.5100037227        7.5138611317
  N        11.2861418091        9.5808000253        7.5140689117
  N        12.4492582292        7.5053889412        7.4915590785
  N        13.6831837516        9.5932877698        7.4909479718
  N        12.4604344259       11.6562340833        7.5025409444
  N         0.5610508752        3.4098569422        7.4926134119
  N         1.7600989790        1.3714454299        7.5077557543
  N         2.9802794948        3.4133725260        7.4989151986
  N         5.3604348583        3.3984608554        7.5015741572
  N         7.7057383333        3.3996367850        7.4781366694
  N         8.8807043804        1.3344864990        7.4935936336
  N         6.5338055936        1.3548768598        7.4958756358
  N         4.1976990380        1.3410794992        7.4985156724
  N        10.0796858214        3.3955844980        7.4985839500
  N        11.3114550766        1.3434720335        7.4874235139
  N        12.5051338040        3.4033249127        7.4720089123
  N        13.6668083666        1.3793359066        7.5015043834
  N         5.3046710744        7.5142353998        7.4957146788
  N         4.1489801071        9.5610907592        7.5019446616
  N         0.6091992606       11.6685623241        7.4995674619
  N         1.8288988218        9.5532956262        7.5133403415
  N         2.9845324797        7.5546302500        7.5145163489
  N         4.1630124353        5.5045170839        7.5015707706
  N         1.7755511111        5.4988222247        7.4785966031
  N         0.6215901799        7.5037932174        7.4974229547
      56
 i =        4, time =        4.000, E =      -152.8562159843
  C         0.6507564846        0.6495248399        7.4963597547
  C         1.7214889972        2.6807804008        7.4912561755
  C         5.3284844566        0.6545805156        7.4824035329
  C         4.2813287628        2.6597978125        7.5130663538
  C         7.7763162936        0.6510385819        7.5056398855
  C         6.5506481926        2.7401458774        7.5249080340
  C         8.8337101594        2.6720066654        7.5152914527
  C        12.4306011746        0.6475483734        7.4870978275
  C        11.3497742090        2.7024122378        7.4824124040
  C        13.6588276393        2.7873555048        7.4877603892
  C         2.9716073313        4.9084736646        7.4873912265
  C         1.7857803027        6.8280923734        7.5237661531
  C         0.6860911735        8.8570801934        7.4780951087
  C         4.1706569871        6.8308283192        7.5172861545
  C         2.9784458466        8.9510173782        7.5007676924
  C         5.3050335013        8.8636954803        7.5053934981
  C        10.0979456756        4.8551039671        7.5207155320
  C         8.8900645576        6.8383555970        7.5076572592
  C         7.8143266260        8.8507178811        7.4961769000
  C         6.5268993036       11.0634702362        7.5090320949
  C        11.3141097314        6.8314934325        7.5393177932
  C        10.0814984681        8.9216694647        7.4922499808
  C        12.4182540884        8.8534257935        7.4895639098
  C        13.6139265136       11.0437113306        7.5030939582
  N         5.3399754171       11.6820947385        7.4894345694
  N         6.5635077721        9.6004452168        7.5220672181
  N         7.7613689860        7.4920483316        7.5082387879
  N         8.9242870784        5.5031025029        7.5003422143
  N         7.6951060401       11.6658083815        7.5101243899
  N         8.9149809576        9.5650504838        7.4920095675
  N        10.0974703337        7.5498117999        7.5175201601
  N        11.2703850764        5.5120685953        7.5184253061
  N        11.2940745514        9.5829004161        7.5190687088
  N        12.4501377132        7.5030048498        7.4884288514
  N        13.6904660693        9.5958654870        7.4879467934
  N        12.4563792573       11.6522382957        7.5031131380
  N         0.5560368948        3.4120959255        7.4904875047
  N         1.7580707825        1.3788803242        7.5098893464
  N         2.9807458639        3.4123051921        7.4986001625
  N         5.3563198182        3.3964202531        7.5022774430
  N         7.7070893113        3.3981690281        7.4715234645
  N         8.8787156530        1.3313518831        7.4913434279
  N         6.5325828469        1.3530751210        7.4942280986
  N         4.1999624379        1.3390991417        7.4980129971
  N        10.0736011253        3.3890553367        7.4982065210
  N        11.3114194763        1.3427140143        7.4830892129
  N        12.5050811591        3.4034153656        7.4630751787
  N        13.6684577972        1.3838828326        7.5012686500
  N         5.2984827490        7.5145963439        7.4940584830
  N         4.1532133699        9.5581654030        7.5032607199
  N         0.6092023523       11.6682635797        7.4992242646
  N         1.8322387113        9.5486002868        7.5179918337
  N         2.9863069898        7.5618955795        7.5188434046
  N         4.1615582182        5.5054595367        7.5024992666
  N         1.7714311144        5.4985392468        7.4713003285
  N         0.6201610706        7.5014850473        7.4963415596
      56
 i =        5, time =        5.000, E =      -152.8483001114
  C         0.6547498890        0.6471319322        7.4953198610
  C         1.7259345225        2.6840080002        7.4892401854
  C         5.3279867947        0.6531910299        7.4780621288
  C         4.2835866894        2.6562571750        7.5160662451
  C         7.7805298526        0.6478655308        7.5066678515
  C         6.5518830549        2.7369340170        7.5302923195
  C         8.8368110602        2.6710507455        7.5184338603
  C        12.4267685535        0.6454634983        7.4837438556
  C        11.3437259458        2.7072685639        7.4779817097
  C        13.6590598789        2.7927229737        7.4845823506
  C         2.9699478856        4.9091904529        7.4843553434
  C         1.7884295108        6.8286133586        7.5288311673
  C         0.6838044769        8.8590992332        7.4732098782
  C         4.1672394000        6.8319011359        7.5211655044
  C         2.9806225637        8.9560511334        7.5013122569
  C         5.3152605181        8.8674286357        7.5068226515
  C        10.0970253030        4.8463692838        7.5255977080
  C         8.8913066024        6.8392589055        7.5094499308
  C         7.8120837030        8.8517395693        7.4955189894
  C         6.5233737447       11.0628120523        7.5112088398
  C        11.3153320105        6.8319852588        7.5482581253
  C        10.0802713043        8.9225205653        7.4907112637
  C        12.4278578681        8.8551683130        7.4871585516
  C        13.6064034509       11.0390460556        7.5036274288
  N         5.3377604638       11.6840051962        7.4865965945
  N         6.5691187727        9.6036971322        7.5274725726
  N         7.7638383711        7.4889264665        7.5101991582
  N         8.9280921151        5.5034281193        7.5006193357
  N         7.6880751411       11.6654541120        7.5127831699
  N         8.9110902519        9.5638145764        7.4901386503
  N        10.0975229921        7.5546992641        7.5215465130
  N        11.2659438951        5.5136453949        7.5231524893
  N        11.3012772101        9.5838905257        7.5239681217
  N        12.4509170035        7.5013208360        7.4853492930
  N        13.6970138420        9.5981432266        7.4849161165
  N        12.4524707317       11.6485643880        7.5036435239
  N         0.5522597831        3.4141534628        7.4883096538
  N         1.7562917332        1.3857973272        7.5119763279
  N         2.9812743218        3.4114218018        7.4982545416
  N         5.3535153059        3.3938907148        7.5031080135
  N         7.7085267382        3.3960276235        7.4651591269
  N         8.8771636473        1.3288231062        7.4892505710
  N         6.5318923745        1.3514580034        7.4927147448
  N         4.2022913507        1.3372812955        7.4975051924
  N        10.0680567599        3.3829891124        7.4978608002
  N        11.3114933779        1.3425469532        7.4787461090
  N        12.5033604458        3.4034705181        7.4541473024
  N        13.6697176042        1.3874074437        7.5009676229
  N         5.2928902050        7.5155513988        7.4924591805
  N         4.1580960804        9.5553851980        7.5045962487
  N         0.6081285056       11.6678315905        7.4988680641
  N         1.8345029521        9.5443491673        7.5225214276
  N         2.9876066140        7.5680894075        7.5232327886
  N         4.1593940774        5.5065315349        7.5034760069
  N         1.7682550696        5.4986974359        7.4641154710
  N         0.6194732740        7.4999717998        7.4952273181
      56
 i =        6, time =        6.000, E =      -152.8421435471
  C         0.6574707113        0.6455164775        7.4943678095
  C         1.7302772498        2.6889391661        7.4872730786
  C         5.3278839299        0.6524618362        7.4737287961
  C         4.2836546210        2.6534865911        7.5189948687
  C         7.7829002731        0.6446882554        7.5076048584
  C         6.5523924520        2.7337800438        7.5353441206
  C         8.8401474118        2.6704318013        7.5212539109
  C        12.4239368769        0.6446118017        7.4803767270
  C        11.3380503829        2.7118117734        7.4733685308
  C        13.6595376616        2.7965693506        7.4812425089
  C         2.9682543044        4.9080198343        7.4812770892
  C         1.7905644559        6.8299325981        7.5336757929
  C         0.6813604416        8.8607486924        7.4685285436
  C         4.1636816288        6.8338659953        7.5249849338
  C         2.9839704673        8.9598757009        7.5020401767
  C         5.3251146369        8.8710653993        7.5083133425
  C        10.0957425849        4.8377221311        7.5304731464
  C         8.8935623361        6.8396980837        7.5113215029
  C         7.8085515336        8.8526484128        7.4949983524
  C         6.5194684702       11.0611199156        7.5134043747
  C        11.3159102251        6.8328630960        7.5571190010
  C        10.0805421901        8.9238358704        7.4893602717
  C        12.4377696079        8.8570840292        7.4848102721
  C        13.6008532372       11.0338801724        7.5040846967
  N         5.3359409201       11.6850784566        7.4836432863
  N         6.5743417955        9.6065349585        7.5329469781
  N         7.7659457975        7.4869246075        7.5121789350
  N         8.9323988844        5.5036126996        7.5010005311
  N         7.6813029771       11.6651815233        7.5155597815
  N         8.9078057613        9.5624221991        7.4881348633
  N        10.0976775698        7.5594125252        7.5257418186
  N        11.2610914772        5.5146688160        7.5282197352
  N        11.3078663594        9.5837164483        7.5288827949
  N        12.4516761763        7.5003513108        7.4822417861
  N        13.7028549818        9.6001114654        7.4817617469
  N        12.4485722294       11.6451595780        7.5041360085
  N         0.5497989671        3.4161855391        7.4860025268
  N         1.7548069326        1.3922443773        7.5140687114
  N         2.9818905864        3.4107406178        7.4978606768
  N         5.3521270917        3.3908201792        7.5041208045
  N         7.7100749585        3.3931253142        7.4589190080
  N         8.8761469519        1.3268670464        7.4872903391
  N         6.5317797017        1.3500092562        7.4913228568
  N         4.2046553294        1.3355680445        7.4969755185
  N        10.0630253078        3.3773382893        7.4975422400
  N        11.3116250287        1.3430078706        7.4742647349
  N        12.4997277595        3.4035634485        7.4449642175
  N        13.6705648953        1.3898620074        7.5005773060
  N         5.2879410389        7.5171698701        7.4908831214
  N         4.1638497614        9.5528139735        7.5059962476
  N         0.6058898975       11.6672300548        7.4984859074
  N         1.8356012498        9.5405959510        7.5270334709
  N         2.9883876592        7.5731988914        7.5278290942
  N         4.1564183729        5.5077548613        7.5045397591
  N         1.7660265509        5.4993480157        7.4568611586
  N         0.6195484134        7.4992914273        7.4940392593
      56
 i =        7, time =        7.000, E =      -152.8387150496
  C         0.6587060639        0.6448322467        7.4935580409
  C         1.7341885864        2.6953674031        7.4854432671
  C         5.3282555284        0.6524506311        7.4695833246
  C         4.2814909796        2.6516280135        7.5217197073
  C         7.7831960774        0.6416849978        7.5083984439
  C         6.5521606557        2.7308268602        7.5397945950
  C         8.8433972475        2.6700601011        7.5235776419
  C        12.4222943459        0.6450729136        7.4771321400
  C        11.3331451693        2.7156886981        7.4687240191
  C        13.6601461419        2.7986204543        7.4778439747
  C         2.9665942931        4.9050274199        7.4782755648
  C         1.7920335447        6.8320306313        7.5380566410
  C         0.6790512194        8.8618551857        7.4642821451
  C         4.1601374562        6.8366924560        7.5285785761
  C         2.9884049541        8.9622484639        7.5029559044
  C         5.3339944831        8.8743305433        7.5098176138
  C        10.0941376832        4.8297189984        7.5351455017
  C         8.8968011458        6.8396522107        7.5132123811
  C         7.8039929246        8.8533294347        7.4946614115
  C         6.5153428524       11.0585256872        7.5155312040
  C        11.3157676705        6.8341077695        7.5655233335
  C        10.0823772893        8.9256203288        7.4882875397
  C        12.4474178331        8.8590065114        7.4826275972
  C        13.5976241821       11.0285988945        7.5044317457
  N         5.3345518383       11.6851625091        7.4806722423
  N         6.5788646110        9.6087752951        7.5382803528
  N         7.7675290231        7.4861696400        7.5141020242
  N         8.9369798709        5.5036047214        7.5014878681
  N         7.6751560761       11.6649563022        7.5183643856
  N         8.9053517150        9.5609700385        7.4860552521
  N        10.0979590501        7.5637041327        7.5299699549
  N        11.2560610912        5.5150303689        7.5334846647
  N        11.3135538283        9.5823431101        7.5336123123
  N        12.4524364666        7.5001653971        7.4792277639
  N        13.7076428144        9.6016266298        7.4785908584
  N        12.4448378493       11.6422010560        7.5045611611
  N         0.5488576456        3.4182063186        7.4836341888
  N         1.7537323928        1.3978860777        7.5160835516
  N         2.9825832226        3.4103264982        7.4974252359
  N         5.3522911228        3.3873394982        7.5053082243
  N         7.7116467317        3.3895617194        7.4530822992
  N         8.8757890188        1.3255562726        7.4855665944
  N         6.5322794260        1.3487937317        7.4901299513
  N         4.2068652275        1.3340282552        7.4964404821
  N        10.0588118903        3.3724323722        7.4972661613
  N        11.3117662309        1.3441022959        7.4698015177
  N        12.4942608724        3.4037336109        7.4358521939
  N        13.6709280294        1.3910695653        7.5000969918
  N         5.2839906438        7.5194093604        7.4893984566
  N         4.1702989674        9.5506746188        7.5074176012
  N         0.6025529984       11.6664795668        7.4980890911
  N         1.8354355789        9.5376045155        7.5313408639
  N         2.9885661884        7.5769064538        7.5324847651
  N         4.1527208082        5.5090811508        7.5056623038
  N         1.7648962615        5.5004999171        7.4498227286
  N         0.6203944251        7.4995193799        7.4928108273
      56
 i =        8, time =        8.000, E =      -152.8381045335
  C         0.6584213500        0.6451301053        7.4929027437
  C         1.7375447863        2.7031782983        7.4837551306
  C         5.3291707658        0.6531260422        7.4656216625