      56
 i =        0, time =        0.000, E =      -152.8806421447
  C        -0.0031871274        0.0018218904       -0.0000044140
  C         0.0216940667        0.0128202873        0.0000003616
  C         0.0032157393        0.0016684328       -0.0000066613
  C        -0.0217907727        0.0127577686        0.0000010662
  C        -0.0031560885        0.0017599595       -0.0000080389
  C        -0.0001390660       -0.0033842724       -0.0000173934
  C         0.0218387911        0.0125356776        0.0000008146
  C         0.0030453071        0.0019524149       -0.0000101954
  C        -0.0218018181        0.0125788587        0.0000041199
  C         0.0001396566       -0.0033000094       -0.0000372732
  C         0.0000616885       -0.0250982905        0.0000129377
  C         0.0029994592        0.0019485883       -0.0000056796
  C        -0.0217518795        0.0127938683        0.0000050829
  C        -0.0031989475        0.0017296069       -0.0000141421
  C        -0.0003034136       -0.0033149324       -0.0000396363
  C         0.0218761067        0.0126294793        0.0000026582
  C         0.0000307611       -0.0251105782        0.0000104497
  C         0.0030070027        0.0020373867       -0.0000165222
  C        -0.0217067733        0.0127442216        0.0000030388
  C        -0.0000304262       -0.0250630504        0.0000096066
  C        -0.0030923445        0.0019072371       -0.0000009168
  C        -0.0000722724       -0.0032977435       -0.0000319370
  C         0.0218444239        0.0127496635        0.0000019354
  C         0.0000523767       -0.0251528575        0.0000080834
  N         0.0123787924        0.0045045263        0.0000012446
  N        -0.0000376411       -0.0000209664       -0.0000032611
  N         0.0100808736        0.0083687693        0.0000018974
  N         0.0124112552        0.0042791380        0.0000329449
  N        -0.0124618016        0.0044222249        0.0000476609
  N        -0.0021457545       -0.0130409680        0.0000190646
  N         0.0000928931       -0.0002189458       -0.0000795226
  N        -0.0125209551        0.0043659329        0.0000257720
  N         0.0024695419       -0.0130864471        0.0000513445
  N        -0.0099077841        0.0083973739       -0.0000138239
  N        -0.0000712284        0.0000133933       -0.0000023182
  N         0.0124089699        0.0041987369        0.0000178701
  N         0.0023188660       -0.0130623528        0.0000336592
  N        -0.0098738996        0.0083647249       -0.0000055904
  N         0.0000457538       -0.0000730675        0.0000048661
  N        -0.0022857337       -0.0131256655        0.0000062165
  N         0.0022516230       -0.0129278288        0.0000433465
  N        -0.0099584496        0.0086426197       -0.0000298546
  N        -0.0000376398       -0.0000643218       -0.0000664798
  N         0.0098435875        0.0084920222        0.0000177291
  N        -0.0000732451        0.0000668546        0.0000045186
  N         0.0099186125        0.0084177138        0.0000115139
  N        -0.0024367722       -0.0129768560        0.0000255762
  N         0.0000139029       -0.0002353625       -0.0000881723
  N        -0.0098702486        0.0084696870       -0.0000390249
  N         0.0024462250       -0.0130855647        0.0000534404
  N        -0.0124897076        0.0043232355        0.0000314015
  N        -0.0021270275       -0.0130864076        0.0000263826
  N         0.0000475490       -0.0001561267       -0.0000874488
  N        -0.0124429964        0.0043480084        0.0000750997
  N         0.0124618920        0.0044231514        0.0000004637
  N         0.0099760971        0.0083491612        0.0000161388
      56
 i =        1, time =        1.000, E =      -152.8784179876
  C        -0.0112970108        0.0063843896        0.0006655859
  C         0.0155377173        0.0207563900        0.0006684809
  C         0.0042463873        0.0053628816        0.0008339405
  C        -0.0313654832        0.0157994604       -0.0009405886
  C        -0.0142879402        0.0019942427       -0.0007085974
  C        -0.0059701308       -0.0012256445       -0.0026358379
  C         0.0195350586        0.0131058711       -0.0022006274
  C         0.0097067153        0.0103197715        0.0005214078
  C        -0.0143699232        0.0079710811       -0.0000416808
  C         0.0028460837       -0.0124281018       -0.0003081474
  C         0.0001508134       -0.0324232070        0.0003647912
  C        -0.0013722171        0.0066307385       -0.0019752879
  C        -0.0191324685        0.0075339462        0.0018884642
  C        -0.0025909335        0.0066561228       -0.0010635004
  C         0.0061405768       -0.0104000964        0.0008813860
  C         0.0140219034        0.0094416212        0.0000411192
  C        -0.0021729653       -0.0187322253       -0.0009680017
  C         0.0078935118       -0.0017726050        0.0000313641
  C        -0.0257738374        0.0091916372        0.0007971163
  C        -0.0018721226       -0.0264245684       -0.0002705241
  C        -0.0064304517        0.0038005332       -0.0020789548
  C         0.0109257407        0.0006786117        0.0011569745
  C         0.0184315272        0.0112338223        0.0007102136
  C         0.0145477670       -0.0225555913       -0.0004539696
  N         0.0132660671       -0.0019880850       -0.0000734459
  N        -0.0031677332       -0.0032561628       -0.0007532126
  N         0.0054212715        0.0153622264       -0.0002955593
  N         0.0129463584        0.0027744422        0.0005963277
  N        -0.0067684027        0.0045319753        0.0001459631
  N         0.0030735016       -0.0112982708       -0.0003660143
  N         0.0005913815       -0.0019670541        0.0000215031
  N        -0.0119787675       -0.0006186250        0.0010505035
  N        -0.0058215302       -0.0193379638       -0.0008120194
  N        -0.0084064014        0.0119062691        0.0005236219
  N        -0.0057698029       -0.0022626762       -0.0001189346
  N         0.0104681450        0.0055672398       -0.0003048570
  N         0.0119224479       -0.0122499902       -0.0002642334
  N        -0.0051545098        0.0021859158       -0.0004960272
  N         0.0006509961        0.0013562928       -0.0002094772
  N         0.0096891278       -0.0143208652        0.0008872116
  N         0.0023565399       -0.0149951317        0.0020866491
  N        -0.0043631735        0.0111100393        0.0012662777
  N         0.0048185147        0.0013297013        0.0010003272
  N         0.0083799971        0.0073261342       -0.0000007328
  N         0.0040836581        0.0034418992        0.0002751379
  N         0.0084753858        0.0111461593        0.0001280402
  N        -0.0155624867       -0.0100922471        0.0004732704
  N        -0.0034952704       -0.0090881189       -0.0005282940
  N        -0.0029407721        0.0109930048        0.0004772168
  N         0.0068174191       -0.0088876350        0.0001044065
  N        -0.0191048616        0.0016391928       -0.0000798200
  N        -0.0096138430       -0.0064552980       -0.0011171344
  N        -0.0038881539       -0.0088132854        0.0002039990
  N        -0.0148633304        0.0044703782        0.0003901894
  N         0.0168039650        0.0069507499        0.0010688768
  N         0.0137859444        0.0126407075       -0.0001948860
      56
 i =        2, time =        2.000, E =      -152.8728496941
  C        -0.0187113103        0.0106979214        0.0013122328
  C         0.0094158449        0.0277725490        0.0013040777
  C         0.0054170931        0.0090950909        0.0016649449
  C        -0.0398420648        0.0180106323       -0.0018600671
  C        -0.0249705581        0.0019052371       -0.0013839571
  C        -0.0109869050        0.0005946782       -0.0052789783
  C         0.0163047366        0.0130890638       -0.0044031379
  C         0.0156069758        0.0178753100        0.0010653997
  C        -0.0065191500        0.0030776990       -0.0001205398
  C         0.0051487096       -0.0213453706       -0.0005340475
  C         0.0002341916       -0.0383450240        0.0007007376
  C        -0.0054906955        0.0109174261       -0.0039725622
  C        -0.0156282124        0.0022456815        0.0037876508
  C        -0.0020444269        0.0113348232       -0.0020876692
  C         0.0126963113       -0.0174498520        0.0017433378
  C         0.0056338206        0.0058415917        0.0000806181
  C        -0.0042364959       -0.0116402873       -0.0019267055
  C         0.0127910230       -0.0053940131        0.0000887634
  C        -0.0288605603        0.0055245461        0.0016045768
  C        -0.0036233717       -0.0269335870       -0.0005625172
  C        -0.0095808604        0.0055688964       -0.0041233420
  C         0.0204586897        0.0040311781        0.0023846053
  C         0.0142596266        0.0093679136        0.0014216026
  C         0.0278017846       -0.0195813904       -0.0009272524
  N         0.0138312324       -0.0087266583       -0.0001403462
  N        -0.0063945498       -0.0064521308       -0.0015026963
  N         0.0003832260        0.0218399104       -0.0006044983
  N         0.0130925951        0.0009981368        0.0011537550
  N        -0.0009111696        0.0044493228        0.0002473011
  N         0.0081864935       -0.0092037552       -0.0007505330
  N         0.0010608442       -0.0037767037        0.0001430109
  N        -0.0111428666       -0.0056073229        0.0020382228
  N        -0.0127111373       -0.0245976500       -0.0017461651
  N        -0.0066460489        0.0151479378        0.0010331833
  N        -0.0114446555       -0.0045262562       -0.0002162362
  N         0.0082810439        0.0069083184       -0.0006291133
  N         0.0210151636       -0.0105539418       -0.0005562925
  N        -0.0004640218       -0.0042167665       -0.0009383189
  N         0.0010931656        0.0027557025       -0.0004185302
  N         0.0208124710       -0.0146461856        0.0017804210
  N         0.0024751943       -0.0166998615        0.0041456073
  N         0.0016489557        0.0136002981        0.0025221395
  N         0.0091245333        0.0028336408        0.0020666734
  N         0.0064535303        0.0062594742       -0.0000187852
  N         0.0082489403        0.0069316972        0.0005320253
  N         0.0067328860        0.0135011610        0.0002440290
  N        -0.0281431927       -0.0068884589        0.0008951264
  N        -0.0066023989       -0.0171897013       -0.0009704215
  N         0.0042276437        0.0133114087        0.0009755521
  N         0.0110563209       -0.0043942950        0.0001669466
  N        -0.0243461389       -0.0006879656       -0.0001728560
  N        -0.0174418678        0.0004982593       -0.0022157143
  N        -0.0076140873       -0.0172063704        0.0004933394
  N        -0.0169490809        0.0042949220        0.0006875258
  N         0.0208070412        0.0091664618        0.0021683224
  N         0.0170057385        0.0166166580       -0.0003904454
      56
 i =        3, time =        3.000, E =      -152.8648725581
  C        -0.0251072952        0.0146146915        0.0019258188
  C         0.0035918779        0.0333019527        0.0018976285
  C         0.0067589120        0.0125311134        0.0024793424
  C        -0.0467770632        0.0195407700       -0.0027428763
  C        -0.0345581438        0.0017570461       -0.0020135499
  C        -0.0148587631        0.0020793489       -0.0078876139
  C         0.0122772323        0.0123868166       -0.0065594401
  C         0.0205708938        0.0241296066        0.0016090976
  C         0.0012373256       -0.0019768790       -0.0002257035
  C         0.0065937773       -0.0294864125       -0.0007227441
  C         0.0003336425       -0.0426289223        0.0010250500
  C        -0.0091777335        0.0145055808       -0.0059640898
  C        -0.0113738402       -0.0027459727        0.0056691440
  C        -0.0015193428        0.0154040889       -0.0030712316
  C         0.0187210822       -0.0239782124        0.0025340192
  C        -0.0028390245        0.0019908354        0.0001218312
  C        -0.0059785942       -0.0042111504       -0.0028448520
  C         0.0172784615       -0.0084979158        0.0001556141
  C        -0.0305876897        0.0020088788        0.0024042441
  C        -0.0050384479       -0.0266459885       -0.0008642250
  C        -0.0123970717        0.0070685619       -0.0061077290
  C         0.0281068473        0.0067442745        0.0036070483
  C         0.0094634798        0.0072347384        0.0021297302
  C         0.0391258151       -0.0161677748       -0.0014010530
  N         0.0140245575       -0.0152340943       -0.0001989353
  N        -0.0097291178       -0.0095246445       -0.0022414319
  N        -0.0046369425        0.0274048525       -0.0009133536
  N         0.0127153007       -0.0008978833        0.0016893552
  N         0.0048077853        0.0041322616        0.0003505593
  N         0.0130158881       -0.0069725545       -0.0011244662
  N         0.0015555848       -0.0056920391        0.0002809803
  N        -0.0100029226       -0.0102454606        0.0029737049
  N        -0.0180845221       -0.0287345353       -0.0027169973
  N        -0.0047660525        0.0179554773        0.0015120390
  N        -0.0169299013       -0.0067579767       -0.0002874497
  N         0.0062426999        0.0083008691       -0.0009544663
  N         0.0291372064       -0.0081693805       -0.0008397277
  N         0.0038377139       -0.0104319396       -0.0013301865
  N         0.0014183234        0.0041078036       -0.0006203620
  N         0.0303873652       -0.0142529679        0.0026562749
  N         0.0024663176       -0.0179706141        0.0061851183
  N         0.0075592940        0.0158750868        0.0037166739
  N         0.0126558231        0.0042938066        0.0031032343
  N         0.0041011476        0.0054176525       -0.0000380822
  N         0.0123568596        0.0105366138        0.0007639420
  N         0.0048625919        0.0154040359        0.0003615075
  N        -0.0390439969       -0.0037113964        0.0012912036
  N        -0.0092192586       -0.0241607636       -0.0014007489
  N         0.0113162573        0.0152656651        0.0014484302
  N         0.0147905114        0.0002027479        0.0002420545
  N        -0.0280953646       -0.0025087602       -0.0002488859
  N        -0.0248737833        0.0073078380       -0.0032565524
  N        -0.0109518415       -0.0249254122        0.0007736328
  N        -0.0186137426        0.0039229664        0.0009615294
  N         0.0243561975        0.0110298117        0.0032813653
  N         0.0194936836        0.0200738578       -0.0005734193
      56
 i =        4, time =        4.000, E =      -152.8562159843
  C        -0.0301132831        0.0179126064        0.0024843437
  C        -0.0016366966        0.0366976188        0.0024323638
  C         0.0082312586        0.0152224165        0.0032501583
  C        -0.0515769936        0.0205847987       -0.0035574768
  C        -0.0421797880        0.0019017643       -0.0025692787
  C        -0.0173044792        0.0032444043       -0.0103327311
  C         0.0077568850        0.0109758791       -0.0085627499
  C         0.0243943436        0.0285777505        0.0021271606
  C         0.0082127785       -0.0069135855       -0.0003425424
  C         0.0067992458       -0.0360884095       -0.0008892158
  C         0.0004639428       -0.0450158420        0.0013363092
  C        -0.0122023367        0.0170701627       -0.0078609019
  C        -0.0066932752       -0.0070454949        0.0074458955
  C        -0.0009763075        0.0184380272       -0.0039771395
  C         0.0233213211       -0.0293126226        0.0032358308
  C        -0.0107266288       -0.0018351373        0.0001647565
  C        -0.0071979999        0.0029732052       -0.0036792674
  C         0.0207898781       -0.0107004714        0.0002284510
  C        -0.0305961236       -0.0010502516        0.0031511353
  C        -0.0058597953       -0.0256463020       -0.0011628407
  C        -0.0146787910        0.0081447797       -0.0079608278
  C         0.0334817561        0.0087947940        0.0047508035
  C         0.0043312365        0.0049703422        0.0028077154
  C         0.0477218136       -0.0123010419       -0.0018514241
  N         0.0138206846       -0.0208257250       -0.0002501677
  N        -0.0130752948       -0.0123100854       -0.0029394646
  N        -0.0090562546        0.0315824010       -0.0012013470
  N         0.0117219428       -0.0026886971        0.0021731291
  N         0.0099395615        0.0035411590        0.0004518058
  N         0.0172393035       -0.0048846100       -0.0014666967
  N         0.0021106459       -0.0076890512        0.0004256825
  N        -0.0085874259       -0.0140840797        0.0038228738
  N        -0.0218799251       -0.0316033762       -0.0036639172
  N        -0.0029676377        0.0201049134        0.0019510694
  N        -0.0218964341       -0.0088757398       -0.0003270425
  N         0.0048075652        0.0097300127       -0.0012727109
  N         0.0356550107       -0.0054826200       -0.0011055779
  N         0.0073528646       -0.0158238524       -0.0016697262
  N         0.0016694135        0.0053564495       -0.0008080424
  N         0.0375775579       -0.0134199378        0.0034647579
  N         0.0022067404       -0.0187150910        0.0081138288
  N         0.0126259187        0.0175782272        0.0048062365
  N         0.0151870017        0.0054986737        0.0040531414
  N         0.0014644575        0.0049062958       -0.0000600893
  N         0.0162290496        0.0141251702        0.0009557818
  N         0.0030881298        0.0167608477        0.0004790232
  N        -0.0469424158       -0.0010087716        0.0016629255
  N        -0.0112433490       -0.0295376283       -0.0017982980
  N         0.0178071978        0.0166619568        0.0018790991
  N         0.0175701949        0.0045761230        0.0003273537
  N        -0.0303131829       -0.0037003586       -0.0003084540
  N        -0.0308364184        0.0132908325       -0.0042110688
  N        -0.0136642107       -0.0313779259        0.0010287744
  N        -0.0197384257        0.0034882857        0.0012022375
  N         0.0272603491        0.0124650146        0.0043595494
  N         0.0211054236        0.0227617965       -0.0007431941
      56
 i =        5, time =        5.000, E =      -152.8483001114
  C        -0.0337452703        0.0205749131        0.0029983139
  C        -0.0063349898        0.0376688518        0.0029266978
  C         0.0098200571        0.0169116082        0.0039921709
  C        -0.0540332149        0.0214037082       -0.0043200513
  C        -0.0475002447        0.0026771674       -0.0030619689
  C        -0.0183254375        0.0041875436       -0.0126164522
  C         0.0028822978        0.0088467703       -0.0104132595
  C         0.0271476335        0.0311379721        0.0026232110
  C         0.0141536165       -0.0116939180       -0.0004592224
  C         0.0056333236       -0.0408552174       -0.0010641528
  C         0.0006412135       -0.0454915626        0.0016503340
  C        -0.0145431777        0.0185186383       -0.0096724289
  C        -0.0017382849       -0.0105524146        0.0091230169
  C        -0.0003405706        0.0202649605       -0.0048201743
  C         0.0259339581       -0.0331490550        0.0038817085
  C        -0.0178162512       -0.0055591322        0.0002117331
  C        -0.0078073761        0.0097266634       -0.0044338429
  C         0.0230083830       -0.0118232127        0.0003062418
  C        -0.0286823146       -0.0035766927        0.0038389384
  C        -0.0059397784       -0.0240011507       -0.0014588086
  C        -0.0163795082        0.0087450436       -0.0097147542
  C         0.0366832104        0.0102892266        0.0058092073
  C        -0.0010865325        0.0025915839        0.0034623400
  C         0.0534805205       -0.0078157549       -0.0022783365
  N         0.0132220580       -0.0251577942       -0.0002999798
  N        -0.0164828634       -0.0147984341       -0.0036038627
  N        -0.0125545192        0.0342340444       -0.0014632647
  N         0.0100239500       -0.0042419944        0.0026020873
  N         0.0143496782        0.0026258833        0.0005521633
  N         0.0207763636       -0.0030757650       -0.0017733125
  N         0.0027714953       -0.0098183052        0.0005731960
  N        -0.0068659601       -0.0169495826        0.0046010175
  N        -0.0243595371       -0.0332825830       -0.0045784868
  N        -0.0013531974        0.0215250889        0.0023689863
  N        -0.0262724314       -0.0109047162       -0.0003349937
  N         0.0042678242        0.0112099911       -0.0015920842
  N         0.0403441923       -0.0028062051       -0.0013603668
  N         0.0099728433       -0.0200884701       -0.0019807257
  N         0.0018945766        0.0065070600       -0.0009845238
  N         0.0421234429       -0.0124144665        0.0042033660
  N         0.0016038697       -0.0189066301        0.0099403647
  N         0.0164234135        0.0184574741        0.0058129000
  N         0.0167217563        0.0063181284        0.0049119808
  N        -0.0014054013        0.0047551579       -0.0000878353
  N         0.0198781092        0.0177077616        0.0011058297
  N         0.0015253944        0.0175784200        0.0006006900
  N        -0.0512442762        0.0009909206        0.0020394101
  N        -0.0127212080       -0.0332603061       -0.0021678575
  N         0.0235438404        0.0174152769        0.0022769502
  N         0.0191592800        0.0086311832        0.0004237826
  N        -0.0311915425       -0.0042589242       -0.0003558938
  N        -0.0346319485        0.0181418329       -0.0051104947
  N        -0.0157019757       -0.0363814593        0.0012551180
  N        -0.0202877105        0.0031005542        0.0014149187
  N         0.0295081242        0.0134878301        0.0054092516
  N         0.0218510965        0.0246324881       -0.0009087918
      56
 i =        6, time =        6.000, E =      -152.8421435471
  C        -0.0360432167        0.0225912892        0.0034813760
  C        -0.0106164157        0.0360024203        0.0034033723
  C         0.0114801271        0.0173965581        0.0047257958
  C        -0.0539777285        0.0221749942       -0.0050519407
  C        -0.0502781378        0.0043424092       -0.0035082765
  C        -0.0179485790        0.0049889566       -0.0147564294
  C        -0.0022326856        0.0060060683       -0.0121228899
  C         0.0288807073        0.0317885677        0.0031053335
  C         0.0188707649       -0.0163062027       -0.0005640822
  C         0.0031411026       -0.0435836840       -0.0012793085
  C         0.0008830861       -0.0440144620        0.0019851539
  C        -0.0161946844        0.0187812127       -0.0114208358
  C         0.0033633712       -0.0132019546        0.0107163907
  C         0.0004783433        0.0207569543       -0.0056215177
  C         0.0261404812       -0.0352753217        0.0045119179
  C        -0.0239785497       -0.0091410825        0.0002658501
  C        -0.0077387501        0.0159400620       -0.0051167366
  C         0.0236828323       -0.0117503404        0.0003883440
  C        -0.0246780527       -0.0055484792        0.0044649107
  C        -0.0051653976       -0.0217477482       -0.0017539920
  C        -0.0174574705        0.0088357683       -0.0114145521
  C         0.0378221271        0.0112921293        0.0067869973
  C        -0.0067899225        0.0000831851        0.0041040992
  C         0.0563748004       -0.0025740634       -0.0026850647
  N         0.0122309166       -0.0279545924       -0.0003556054
  N        -0.0200061817       -0.0169920570       -0.0042461245
  N        -0.0148890602        0.0352684130       -0.0016959306
  N         0.0075237306       -0.0054404263        0.0029752028
  N         0.0179681497        0.0013494255        0.0006535646
  N         0.0235847497       -0.0016180677       -0.0020405795
  N         0.0035718982       -0.0121242088        0.0007205424
  N        -0.0047821575       -0.0187190660        0.0053277422
  N        -0.0257559346       -0.0338183352       -0.0054633155
  N        -0.0000056618        0.0221503677        0.0027890809
  N        -0.0299961473       -0.0128760214       -0.0003114299
  N         0.0048202568        0.0127549621       -0.0019233167
  N         0.0429800485       -0.0004181757       -0.0016135319
  N         0.0116447203       -0.0230318288       -0.0022897071
  N         0.0021239812        0.0075662978       -0.0011534220
  N         0.0438512937       -0.0114183362        0.0048760480
  N         0.0005885066       -0.0185103377        0.0116844100
  N         0.0186311335        0.0182970266        0.0067664766
  N         0.0172790512        0.0066493407        0.0056807636
  N        -0.0044618544        0.0049766555       -0.0001253127
  N         0.0233202882        0.0212879280        0.0012138555
  N         0.0002629597        0.0178464200        0.0007316495
  N        -0.0515583148        0.0021738871        0.0024541929
  N        -0.0136978387       -0.0352938061       -0.0025193831
  N         0.0284141804        0.0174374482        0.0026551052
  N         0.0193364435        0.0123074495        0.0005337670
  N        -0.0308692127       -0.0041719446       -0.0003947783
  N        -0.0357058334        0.0216709543       -0.0059934621
  N        -0.0170330800       -0.0397934673        0.0014493420
  N        -0.0202153425        0.0028443014        0.0016062240
  N         0.0310862856        0.0141086249        0.0064446061
  N         0.0217398731        0.0256539324       -0.0010805895
      56
 i =        7, time =        7.000, E =      -152.8387150496
  C        -0.0369119767        0.0238208099        0.0039156251
  C        -0.0143127260        0.0317588307        0.0038527389
  C         0.0130056050        0.0165416717        0.0054246371
  C        -0.0513461232        0.0228976380       -0.0057252008
  C        -0.0502426367        0.0068915805       -0.0038952515
  C        -0.0162610201        0.0056427522       -0.0166302117
  C        -0.0071025420        0.0027051293       -0.0135943187
  C         0.0295062673        0.0305377543        0.0035493740
  C         0.0219002871       -0.0204389452       -0.0006364474
  C        -0.0002552942       -0.0440119491       -0.0015466271
  C         0.0011920696       -0.0406458615        0.0023365230
  C        -0.0170460042        0.0178034626       -0.0130133652
  C         0.0081313146       -0.0147706184        0.0121382830
  C         0.0015211750        0.0198157505       -0.0063510957
  C         0.0237791446       -0.0354755297        0.0051241699
  C        -0.0287293226       -0.0123146126        0.0003267714
  C        -0.0069546902        0.0211349317       -0.0056928240
  C         0.0226345686       -0.0104677072        0.0004685622
  C        -0.0187937121       -0.0068559019        0.0049858662
  C        -0.0035285866       -0.0190728576       -0.0020301158
  C        -0.0178114767        0.0084003176       -0.0129939644
  C         0.0369550711        0.0117541696        0.0076291409
  C        -0.0124078858       -0.0024149800        0.0047007328
  C         0.0562978586        0.0031118392       -0.0030490629
  N         0.0109254194       -0.0288519527       -0.0004203000
  N        -0.0234366133       -0.0187533044       -0.0048373998
  N        -0.0157781539        0.0345987192       -0.0018811334
  N         0.0043044066       -0.0061010745        0.0032675379
  N         0.0205448144       -0.0002032431        0.0007506974
  N         0.0254833894       -0.0006117147       -0.0022455922
  N         0.0044736194       -0.0144712470        0.0008532429
  N        -0.0024109387       -0.0192107659        0.0059745663
  N        -0.0261793168       -0.0331957571       -0.0062657591
  N         0.0009263794        0.0218905229        0.0032084522
  N        -0.0327512342       -0.0146793044       -0.0002584786
  N         0.0064900182        0.0142851502       -0.0022547697
  N         0.0431980986        0.0012906217       -0.0018588500
  N         0.0122489378       -0.0244179279       -0.0026013054
  N         0.0023424657        0.0084620285       -0.0013067968
  N         0.0426000373       -0.0105606891        0.0054423890
  N        -0.0008040119       -0.0175167954        0.0132496130
  N         0.0189458809        0.0169833987        0.0076333362
  N         0.0168574520        0.0064062811        0.0063111984
  N        -0.0074343600        0.0055496340       -0.0001754807
  N         0.0263060417        0.0245904973        0.0012744365
  N        -0.0005512039        0.0175224916        0.0008688482
  N        -0.0477489607        0.0024878677        0.0029081002
  N        -0.0141507474       -0.0355044424       -0.0028413338
  N         0.0320126953        0.0166409999        0.0030040298
  N         0.0178989371        0.0153186193        0.0006530476
  N        -0.0294570214       -0.0034329304       -0.0004256071
  N        -0.0337076442        0.0236076915       -0.0068375585
  N        -0.0175514414       -0.0412905427        0.0015947887
  N        -0.0194761376        0.0027868233        0.0017701659
  N         0.0318700382        0.0142883887        0.0074100967
  N         0.0207897898        0.0257442813       -0.0012581212
      56
 i =        8, time =        8.000, E =      -152.8381045335
  C        -0.0363963993        0.0242351945        0.0043035542
  C        -0.0174175535        0.0251953566        0.0042804595
  C         0.0142129526        0.0143996049        0.0060936454