      56
 i =        0, time =        0.000, E =      -152.8806421447
  C         0.0003451212       -0.0002039713       -0.0000593434
  C         0.0001309642       -0.0000882971       -0.0001036156
  C        -0.0000721033       -0.0001442352       -0.0002130760
  C         0.0004425563       -0.0003124360        0.0001536617
  C         0.0004129814       -0.0001603296        0.0000593529
  C         0.0001487252       -0.0001517789        0.0002942488
  C         0.0000151467       -0.0001487195        0.0001838956
  C        -0.0003095484       -0.0002489293       -0.0001626634
  C        -0.0002329087        0.0002049440       -0.0002002991
  C        -0.0000297847        0.0004343286       -0.0001400011
  C        -0.0000778157        0.0003546060       -0.0001446407
  C         0.0001708325       -0.0000705462        0.0002677385
  C         0.0000161004        0.0000796733       -0.0002577083
  C        -0.0001390818       -0.0000503149        0.0001957723
  C        -0.0000151366        0.0003849075        0.0000090350
  C         0.0004331019        0.0001287926        0.0000642793
  C        -0.0000050838       -0.0003140795        0.0002399253
  C        -0.0000568510        0.0000887518        0.0000806633
  C         0.0001365251        0.0000048200       -0.0000449154
  C        -0.0001296093        0.0001927503        0.0001044482
  C         0.0001396361       -0.0000256761        0.0004450611
  C        -0.0002306540        0.0000038108       -0.0000923884
  C         0.0003287869        0.0000054032       -0.0001227821
  C        -0.0005854738       -0.0000554697        0.0000329897
  N        -0.0001995919        0.0001586997       -0.0001281062
  N         0.0003076292        0.0001989082        0.0002580299
  N         0.0001168452       -0.0003041037        0.0000940899
  N         0.0000815950        0.0000110085        0.0000035341
  N        -0.0003211912       -0.0000466156        0.0001190505
  N        -0.0002422883        0.0000066423       -0.0000791929
  N        -0.0000062582        0.0002534873        0.0001819252
  N        -0.0001245941        0.0001174669        0.0001991992
  N         0.0004201571        0.0002239858        0.0002373795
  N         0.0000803544       -0.0001885637       -0.0001482557
  N         0.0003884772        0.0001398294       -0.0001364120
  N        -0.0002361537       -0.0002198742        0.0000292253
  N        -0.0003314470        0.0001631711       -0.0000946945
  N        -0.0000818559        0.0003535926        0.0001021484
  N         0.0000162226       -0.0000620460       -0.0000124186
  N        -0.0002845830       -0.0000130092        0.0000236243
  N         0.0000482497        0.0000234311       -0.0003228323
  N        -0.0000906440       -0.0002160043       -0.0001150917
  N        -0.0000987897       -0.0000960609       -0.0000853171
  N         0.0000650247       -0.0001282771       -0.0000229381
  N        -0.0003182974       -0.0003326776       -0.0000198152
  N        -0.0000421306       -0.0001061436       -0.0001996478
  N         0.0001328472        0.0000481647       -0.0004133576
  N         0.0001066193        0.0002896091       -0.0000060523
  N        -0.0002954993       -0.0000541755       -0.0000804726
  N         0.0001392164       -0.0001020903        0.0000593885
  N         0.0001256574       -0.0000147331       -0.0000149323
  N         0.0002382932       -0.0002063677        0.0002235692
  N         0.0001173684        0.0004148239        0.0001958289
  N         0.0000248755        0.0000191337        0.0000391679
  N        -0.0002987040       -0.0000603193       -0.0003445748
  N        -0.0001546371       -0.0001920066       -0.0000476618
      56
 i =        1, time =        1.000, E =      -152.8784179876
  C         0.0003314718       -0.0001962418       -0.0000587402
  C         0.0001665154       -0.0000563304       -0.0001030254
  C        -0.0000650229       -0.0001375984       -0.0002123847
  C         0.0003920870       -0.0002853564        0.0001528363
  C         0.0003965414       -0.0001568242        0.0000586968
  C         0.0001429695       -0.0001562427        0.0002918540
  C         0.0000545934       -0.0001243445        0.0001818826
  C        -0.0002975338       -0.0002373445       -0.0001622504
  C        -0.0002674959        0.0002246269       -0.0002004264
  C        -0.0000269521        0.0004195340       -0.0001403943
  C        -0.0000776487        0.0002999353       -0.0001443467
  C         0.0001724616       -0.0000624001        0.0002659724
  C        -0.0000228654        0.0000990872       -0.0002560209
  C        -0.0001446646       -0.0000423442        0.0001948345
  C        -0.0000095792        0.0003720093        0.0000098415
  C         0.0004675196        0.0001498907        0.0000643504
  C        -0.0000071282       -0.0003560163        0.0002391220
  C        -0.0000464860        0.0000890447        0.0000807143
  C         0.0000913264        0.0000257326       -0.0000441732
  C        -0.0001314821        0.0001437575        0.0001042472
  C         0.0001306222       -0.0000202469        0.0004432817
  C        -0.0002204133        0.0000013158       -0.0000913582
  C         0.0003673302        0.0000282681       -0.0001221593
  C        -0.0005718236       -0.0001009733        0.0000325797
  N        -0.0001787206        0.0001608291       -0.0001282238
  N         0.0003051496        0.0001963202        0.0002575294
  N         0.0001295702       -0.0002848446        0.0000938929
  N         0.0001023598        0.0000167792        0.0000040501
  N        -0.0003370569       -0.0000393177        0.0001192631
  N        -0.0002416406       -0.0000132499       -0.0000795127
  N        -0.0000057018        0.0002518162        0.0001819608
  N        -0.0001446774        0.0001205837        0.0002001700
  N         0.0004176090        0.0001975840        0.0002368662
  N         0.0000654208       -0.0001720533       -0.0001479067
  N         0.0003838800        0.0001380546       -0.0001365734
  N        -0.0002175615       -0.0002119917        0.0000290041
  N        -0.0003199574        0.0001425550       -0.0000949262
  N        -0.0000941777        0.0003623783        0.0001017850
  N         0.0000167995       -0.0000610254       -0.0000125915
  N        -0.0002786614       -0.0000354503        0.0000243654
  N         0.0000520385        0.0000006172       -0.0003212387
  N        -0.0001023921       -0.0001999568       -0.0001141336
  N        -0.0000949269       -0.0000950704       -0.0000845927
  N         0.0000799506       -0.0001154058       -0.0000229347
  N        -0.0003151646       -0.0003299614       -0.0000195956
  N        -0.0000271144       -0.0000902004       -0.0001996249
  N         0.0001181951        0.0000293298       -0.0004131386
  N         0.0001038223        0.0002821202       -0.0000065590
  N        -0.0003061061       -0.0000382912       -0.0000801512
  N         0.0001468522       -0.0001200981        0.0000595446
  N         0.0000998890       -0.0000098660       -0.0000149787
  N         0.0002288049       -0.0002224356        0.0002227797
  N         0.0001142827        0.0004076817        0.0001960136
  N         0.0000025664        0.0000263507        0.0000395661
  N        -0.0002749181       -0.0000510496       -0.0003438581
  N        -0.0001352843       -0.0001749369       -0.0000478297
      56
 i =        2, time =        2.000, E =      -152.8728496941
  C         0.0003080883       -0.0001830521       -0.0000577927
  C         0.0001930747       -0.0000107958       -0.0001027955
  C        -0.0000568215       -0.0001259766       -0.0002134108
  C         0.0003302522       -0.0002575926        0.0001526154
  C         0.0003653527       -0.0001556159        0.0000576388
  C         0.0001290425       -0.0001593606        0.0002889759
  C         0.0000897697       -0.0001012774        0.0001784896
  C        -0.0002780969       -0.0002141816       -0.0001633426
  C        -0.0002917904        0.0002388148       -0.0002038067
  C        -0.0000197350        0.0003939644       -0.0001434593
  C        -0.0000785297        0.0002370382       -0.0001456497
  C         0.0001686691       -0.0000466111        0.0002645603
  C        -0.0000564984        0.0001100405       -0.0002547086
  C        -0.0001514283       -0.0000258086        0.0001949539
  C         0.0000082930        0.0003513436        0.0000125117
  C         0.0004938525        0.0001669283        0.0000655023
  C        -0.0000133766       -0.0003908106        0.0002401996
  C        -0.0000274394        0.0000836193        0.0000821281
  C         0.0000405122        0.0000402297       -0.0000425856
  C        -0.0001388569        0.0000950083        0.0001051274
  C         0.0001174017       -0.0000116064        0.0004444790
  C        -0.0001939258        0.0000058441       -0.0000894390
  C         0.0004045255        0.0000484383       -0.0001220849
  C        -0.0005404973       -0.0001429221        0.0000317822
  N        -0.0001593603        0.0001546245       -0.0001304625
  N         0.0003022129        0.0001915126        0.0002598220
  N         0.0001364183       -0.0002588998        0.0000946651
  N         0.0001253746        0.0000201450        0.0000055514
  N        -0.0003487824       -0.0000325802        0.0001215049
  N        -0.0002362889       -0.0000302871       -0.0000817084
  N        -0.0000044377        0.0002511548        0.0001850237
  N        -0.0001659791        0.0001174150        0.0002059255
  N         0.0004091208        0.0001647096        0.0002385783
  N         0.0000541214       -0.0001526211       -0.0001490091
  N         0.0003759308        0.0001347051       -0.0001390461
  N        -0.0002056767       -0.0002051654        0.0000287044
  N        -0.0002980771        0.0001261359       -0.0000971270
  N        -0.0001003037        0.0003665428        0.0001022458
  N         0.0000185011       -0.0000586330       -0.0000133095
  N        -0.0002581156       -0.0000597911        0.0000269465
  N         0.0000568408       -0.0000253819       -0.0003212935
  N        -0.0001062669       -0.0001828970       -0.0001128613
  N        -0.0000850126       -0.0000931837       -0.0000834371
  N         0.0000934095       -0.0001061144       -0.0000233198
  N        -0.0003101157       -0.0003267582       -0.0000192486
  N        -0.0000150707       -0.0000714261       -0.0002025317
  N         0.0000842319        0.0000158673       -0.0004186635
  N         0.0000972067        0.0002650961       -0.0000078944
  N        -0.0003099756       -0.0000189631       -0.0000802487
  N         0.0001638824       -0.0001329298        0.0000607254
  N         0.0000658403       -0.0000092442       -0.0000154271
  N         0.0002102846       -0.0002309032        0.0002236295
  N         0.0001066828        0.0003928899        0.0001997399
  N        -0.0000234977        0.0000339675        0.0000410872
  N        -0.0002484781       -0.0000386452       -0.0003467346
  N        -0.0001121935       -0.0001537431       -0.0000490797
      56
 i =        3, time =        3.000, E =      -152.8648725581
  C         0.0002614894       -0.0001560353       -0.0000536725
  C         0.0002014109        0.0000460667       -0.0000978396
  C        -0.0000444291       -0.0001034820       -0.0002054436
  C         0.0002435225       -0.0002177828        0.0001453973
  C         0.0003030745       -0.0001492124        0.0000533737
  C         0.0001025746       -0.0001538014        0.0002711797
  C         0.0001145486       -0.0000756889        0.0001648723
  C        -0.0002391651       -0.0001710793       -0.0001577061
  C        -0.0002910529        0.0002352223       -0.0002001906
  C        -0.0000084612        0.0003392009       -0.0001418537
  C        -0.0000764858        0.0001573458       -0.0001412350
  C         0.0001518039       -0.0000221277        0.0002502318
  C        -0.0000804546        0.0001074505       -0.0002410157
  C        -0.0001518087       -0.0000005065        0.0001864022
  C         0.0000372762        0.0003061266        0.0000162377
  C         0.0004869044        0.0001709689        0.0000644247
  C        -0.0000225939       -0.0003979647        0.0002311330
  C         0.0000009837        0.0000691174        0.0000807681
  C        -0.0000154158        0.0000464407       -0.0000380443
  C        -0.0001442092        0.0000434714        0.0001017730
  C         0.0000947464        0.0000003406        0.0004264017
  C        -0.0001451290        0.0000157268       -0.0000821532
  C         0.0004187166        0.0000629034       -0.0001164321
  C        -0.0004679722       -0.0001733226        0.0000290084
  N        -0.0001341243        0.0001325782       -0.0001282119
  N         0.0002835492        0.0001751044        0.0002518244
  N         0.0001303993       -0.0002147274        0.0000916289
  N         0.0001434809        0.0000198355        0.0000077056
  N        -0.0003389448       -0.0000251248        0.0001196331
  N        -0.0002148590       -0.0000425691       -0.0000816213
  N        -0.0000022708        0.0002387710        0.0001817865
  N        -0.0001795926        0.0001025368        0.0002059339
  N         0.0003767212        0.0001191055        0.0002304191
  N         0.0000439983       -0.0001233412       -0.0001441059
  N         0.0003460983        0.0001231269       -0.0001367605
  N        -0.0001901506       -0.0001891040        0.0000268902
  N        -0.0002524259        0.0001088060       -0.0000963611
  N        -0.0000956824        0.0003478096        0.0000984661
  N         0.0000201414       -0.0000520409       -0.0000138787
  N        -0.0002124032       -0.0000816233        0.0000299550
  N         0.0000596734       -0.0000524695       -0.0003068691
  N        -0.0000968895       -0.0001559180       -0.0001057184
  N        -0.0000660455       -0.0000857141       -0.0000777129
  N         0.0001000004       -0.0000947760       -0.0000229145
  N        -0.0002877341       -0.0003065508       -0.0000178459
  N        -0.0000055562       -0.0000470542       -0.0001981374
  N         0.0000291619        0.0000071293       -0.0004088364
  N         0.0000827438        0.0002270833       -0.0000096279
  N        -0.0002916232        0.0000041343       -0.0000767703
  N         0.0001812757       -0.0001336958        0.0000598776
  N         0.0000228547       -0.0000116084       -0.0000154645
  N         0.0001725629       -0.0002202332        0.0002149565
  N         0.0000898539        0.0003517868        0.0001968889
  N        -0.0000513315        0.0000398480        0.0000416051
  N        -0.0002077536       -0.0000218339       -0.0003357012
  N        -0.0000809932       -0.0001215882       -0.0000488982
      56
 i =        4, time =        4.000, E =      -152.8562159843
  C         0.0002107383       -0.0001261533       -0.0000498245
  C         0.0002045264        0.0001127635       -0.0000943441
  C        -0.0000304860       -0.0000777999       -0.0002012938
  C         0.0001517383       -0.0001810788        0.0001403301
  C         0.0002321702       -0.0001466752        0.0000493600
  C         0.0000727034       -0.0001497134        0.0002555913
  C         0.0001342719       -0.0000539985        0.0001515578
  C        -0.0001980035       -0.0001221466       -0.0001551486
  C        -0.0002839092        0.0002282601       -0.0002019826
  C         0.0000041918        0.0002791131       -0.0001442708
  C        -0.0000762079        0.0000751821       -0.0001398788
  C         0.0001324707        0.0000076897        0.0002386822
  C        -0.0000980984        0.0000988339       -0.0002300819
  C        -0.0001551264        0.0000315963        0.0001808820
  C         0.0000773951        0.0002574856        0.0000218132
  C         0.0004770821        0.0001721867        0.0000650998
  C        -0.0000352360       -0.0004016299        0.0002263902
  C         0.0000371053        0.0000513365        0.0000816380
  C        -0.0000735573        0.0000476408       -0.0000330120
  C        -0.0001554509       -0.0000058662        0.0001004869
  C         0.0000696526        0.0000147756        0.0004157236
  C        -0.0000876083        0.0000305671       -0.0000747383
  C         0.0004344242        0.0000748761       -0.0001124766
  C        -0.0003885088       -0.0002014158        0.0000261043
  N        -0.0001123115        0.0001040731       -0.0001293797
  N         0.0002667723        0.0001584376        0.0002491858
  N         0.0001200759       -0.0001680848        0.0000904821
  N         0.0001642587        0.0000170420        0.0000108960
  N        -0.0003290691       -0.0000190397        0.0001210346
  N        -0.0001915910       -0.0000524814       -0.0000842400
  N         0.0000006975        0.0002293798        0.0001834992
  N        -0.0001958400        0.0000833864        0.0002127519
  N         0.0003465677        0.0000707657        0.0002266703
  N         0.0000379823       -0.0000931508       -0.0001421906
  N         0.0003166789        0.0001111794       -0.0001381163
  N        -0.0001823513       -0.0001756193        0.0000252467
  N        -0.0002012969        0.0000983810       -0.0000985467
  N        -0.0000871776        0.0003286272        0.0000966419
  N         0.0000227794       -0.0000446673       -0.0000151276
  N        -0.0001584427       -0.0001046463        0.0000351220
  N         0.0000638484       -0.0000826419       -0.0002971575
  N        -0.0000810751       -0.0001296794       -0.0000994467
  N        -0.0000438086       -0.0000782844       -0.0000723775
  N         0.0001051540       -0.0000869706       -0.0000231378
  N        -0.0002662802       -0.0002884069       -0.0000165586
  N         0.0000008770       -0.0000211823       -0.0001986937
  N        -0.0000406060        0.0000033340       -0.0004089920
  N         0.0000666152        0.0001848206       -0.0000122906
  N        -0.0002697563        0.0000301335       -0.0000745438
  N         0.0002087359       -0.0001306449        0.0000607156
  N        -0.0000245180       -0.0000167322       -0.0000160147
  N         0.0001283224       -0.0002048544        0.0002102269
  N         0.0000703910        0.0003081854        0.0001995875
  N        -0.0000828525        0.0000461265        0.0000436258
  N        -0.0001670635       -0.0000028574       -0.0003315864
  N        -0.0000484725       -0.0000875021       -0.0000502753
      56
 i =        5, time =        5.000, E =      -152.8483001114
  C         0.0001532145       -0.0000914683       -0.0000454549
  C         0.0002005424        0.0001861779       -0.0000908918
  C        -0.0000137036       -0.0000483469       -0.0001979521
  C         0.0000530746       -0.0001440181        0.0001352850
  C         0.0001502423       -0.0001449105        0.0000448395
  C         0.0000398029       -0.0001452644        0.0002381450
  C         0.0001468941       -0.0000359374        0.0001360596
  C        -0.0001520751       -0.0000670107       -0.0001533713
  C        -0.0002675304        0.0002144915       -0.0002063755
  C         0.0000162023        0.0002102542       -0.0001487340
  C        -0.0000765140       -0.0000103561       -0.0001395208
  C         0.0001091714        0.0000419928        0.0002261318
  C        -0.0001079523        0.0000837129       -0.0002183030
  C        -0.0001591733        0.0000693179        0.0001756813
  C         0.0001260684        0.0002021414        0.0000290373
  C         0.0004582390        0.0001681769        0.0000666290
  C        -0.0000502732       -0.0003966426        0.0002226627
  C         0.0000798171        0.0000306347        0.0000836158
  C        -0.0001317840        0.0000440535       -0.0000268937
  C        -0.0001695670       -0.0000536328        0.0000997727
  C         0.0000410861        0.0000312549        0.0004062125
  C        -0.0000218217        0.0000494360       -0.0000659414
  C         0.0004453320        0.0000834787       -0.0001084750
  C        -0.0002983240       -0.0002243409        0.0000226080
  N        -0.0000920647        0.0000680866       -0.0001321535
  N         0.0002472257        0.0001389641        0.0002482693
  N         0.0001044400       -0.0001169202        0.0000899117
  N         0.0001851064        0.0000116424        0.0000150224
  N        -0.0003149773       -0.0000143045        0.0001240322
  N        -0.0001637335       -0.0000599758       -0.0000884183
  N         0.0000047290        0.0002190826        0.0001876131
  N        -0.0002120741        0.0000593354        0.0002235028
  N         0.0003147205        0.0000186213        0.0002239513
  N         0.0000351068       -0.0000605521       -0.0001411850
  N         0.0002827073        0.0000968906       -0.0001411389
  N        -0.0001781515       -0.0001615319        0.0000233413
  N        -0.0001423456        0.0000933224       -0.0001023444
  N        -0.0000744790        0.0003049593        0.0000953705
  N         0.0000261219       -0.0000357026       -0.0000168746
  N        -0.0000956754       -0.0001277902        0.0000420644
  N         0.0000681306       -0.0001150944       -0.0002876258
  N        -0.0000586162       -0.0001023412       -0.0000924890
  N        -0.0000183273       -0.0000699611       -0.0000662958
  N         0.0001070889       -0.0000805774       -0.0000236746
  N        -0.0002413336       -0.0002673757       -0.0000151585
  N         0.0000046906        0.0000067056       -0.0002013691
  N        -0.0001221612        0.0000033792       -0.0004132808
  N         0.0000480827        0.0001364410       -0.0000157760
  N        -0.0002405552        0.0000587263       -0.0000724598
  N         0.0002427158       -0.0001221163        0.0000624230
  N        -0.0000755881       -0.0000235844       -0.0000168488
  N         0.0000767310       -0.0001826539        0.0002063245
  N         0.0000474796        0.0002579345        0.0002050478
  N        -0.0001172881        0.0000523779        0.0000465628
  N        -0.0001233288        0.0000184556       -0.0003294928
  N        -0.0000139805       -0.0000500570       -0.0000525371
      56
 i =        6, time =        6.000, E =      -152.8421435471
  C         0.0000896765       -0.0000521281       -0.0000399360
  C         0.0001870988        0.0002574890       -0.0000860666
  C         0.0000060915       -0.0000167830       -0.0001921931
  C        -0.0000475044       -0.0001049314        0.0001281497
  C         0.0000604366       -0.0001400971        0.0000392282
  C         0.0000062925       -0.0001384338        0.0002153926
  C         0.0001492922       -0.0000224554        0.0001165965
  C        -0.0001014190       -0.0000088536       -0.0001498709
  C        -0.0002398395        0.0001908632       -0.0002098485
  C         0.0000246228        0.0001336810       -0.0001527420
  C        -0.0000760175       -0.0000943654       -0.0001378132
  C         0.0000816943        0.0000774609        0.0002091182
  C        -0.0001077443        0.0000624705       -0.0002023692
  C        -0.0001609831        0.0001086071        0.0001680356
  C         0.0001764071        0.0001404778        0.0000372573
  C         0.0004246517        0.0001564488        0.0000678882
  C        -0.0000654550       -0.0003774199        0.0002164244
  C         0.0001245474        0.0000089152        0.0000852852
  C        -0.0001833975        0.0000360382       -0.0000194391
  C        -0.0001820401       -0.0000971611        0.0000979771
  C         0.0000098753        0.0000481120        0.0003913587
  C         0.0000477374        0.0000702638       -0.0000549397
  C         0.0004433750        0.0000870023       -0.0001027053
  C        -0.0001990039       -0.0002368108        0.0000182318
  N        -0.0000727314        0.0000262334       -0.0001342901
  N         0.0002209135        0.0001151091        0.0002449851
  N         0.0000836578       -0.0000624903        0.0000884681
  N         0.0002014630        0.0000040031        0.0000196874
  N        -0.0002928426       -0.0000112841        0.0001265121
  N        -0.0001300781       -0.0000644785       -0.0000925603
  N         0.0000098843        0.0002041176        0.0001909382
  N        -0.0002240182        0.0000313939        0.0002342043
  N         0.0002782799       -0.0000350760        0.0002186094
  N         0.0000344424       -0.0000261909       -0.0001387596
  N         0.0002409320        0.0000789600       -0.0001433776
  N        -0.0001730182       -0.0001442407        0.0000208005
  N        -0.0000771179        0.0000918680       -0.0001059810
  N        -0.0000580138        0.0002740214        0.0000931004
  N         0.0000296695       -0.0000248278       -0.0000187983
  N        -0.0000277491       -0.0001484995        0.0000498732
  N         0.0000707224       -0.0001465657       -0.0002737512
  N        -0.0000311594       -0.0000740509       -0.0000835064
  N         0.0000087735       -0.0000603923       -0.0000585907
  N         0.0001036782       -0.0000737382       -0.0000241343
  N        -0.0002095579       -0.0002392946       -0.0000134790
  N         0.0000061849        0.0000352557       -0.0002027513
  N        -0.0002062644        0.0000059636       -0.0004147039
  N         0.0000274373        0.0000830111       -0.0000197350
  N        -0.0002017306        0.0000874502       -0.0000693789
  N         0.0002766086       -0.0001067769        0.0000639529
  N        -0.0001263827       -0.0000306470       -0.0000176574
  N         0.0000211403       -0.0001528842        0.0001999144
  N         0.0000217511        0.0001998602        0.0002097189
  N        -0.0001512662        0.0000577934        0.0000495578
  N        -0.0000761357        0.0000408577       -0.0003239804
  N         0.0000208802       -0.0000102552       -0.0000547757
      56
 i =        7, time =        7.000, E =      -152.8387150496
  C         0.0000217496       -0.0000088398       -0.0000335191
  C         0.0001662734        0.0003257759       -0.0000804868
  C         0.0000294414        0.0000151963       -0.0001854824
  C        -0.0001482674       -0.0000637205        0.0001198673
  C        -0.0000341185       -0.0001315629        0.0000327943
  C        -0.0000261045       -0.0001304464        0.0001888651
  C         0.0001427017       -0.0000145237        0.0000939476
  C        -0.0000475083        0.0000502102       -0.0001458352
  C        -0.0002047713        0.0001588721       -0.0002141884
  C         0.0000277393        0.0000525193       -0.0001577550
  C        -0.0000752055       -0.0001762162       -0.0001358097
  C         0.0000513673        0.0001133908        0.0001890986
  C        -0.0000984693        0.0000368541       -0.0001837469
  C        -0.0001615385        0.0001487998        0.0001592259
  C         0.0002265115        0.0000754192        0.0000469779
  C         0.0003810635        0.0001384552        0.0000694862
  C        -0.0000804092       -0.0003479600        0.0002094571
  C         0.0001704396       -0.0000120520        0.0000873995
  C        -0.0002274841        0.0000248058       -0.0000107590
  C        -0.0001930734       -0.0001374147        0.0000958767
  C        -0.0000234732        0.0000652167        0.0003741421
  C         0.0001194900        0.0000932250       -0.0000420847
  C         0.0004319008        0.0000861140       -0.0000959083
  C        -0.0000950195       -0.0002399107        0.0000130634
  N        -0.0000549803       -0.0000196337       -0.0001369696
  N         0.0001888992        0.0000877508        0.0002413222
  N         0.0000599559       -0.0000065386        0.0000869036
  N         0.0002141684       -0.0000053360        0.0000250721
  N        -0.0002659401       -0.0000105226        0.0001295847
  N        -0.0000920971       -0.0000672777       -0.0000974626
  N         0.0000165878        0.0001855687        0.0001951312
  N        -0.0002332924        0.0000009799        0.0002469806
  N         0.0002402234       -0.0000901916        0.0002123897
  N         0.0000357174        0.0000092796       -0.0001359905
  N         0.0001934999        0.0000577210       -0.0001460279
  N        -0.0001664444       -0.0001244167        0.0000177148
  N        -0.0000081045        0.0000939793       -0.0001104250
  N        -0.0000394377        0.0002395533        0.0000905363
  N         0.0000337596       -0.0000121518       -0.0000210887
  N         0.0000422395       -0.0001686649        0.0000590377
  N         0.0000716252       -0.0001781433       -0.0002576172
  N        -0.0000010292       -0.0000464452       -0.0000730515
  N         0.0000367103       -0.0000506798       -0.0000497170
  N         0.0000955700       -0.0000662892       -0.0000247473
  N        -0.0001723340       -0.0002055768       -0.0000116578
  N         0.0000060444        0.0000646000       -0.0002045391
  N        -0.0002902918        0.0000098514       -0.0004166596
  N         0.0000051739        0.0000266139       -0.0000244020
  N        -0.0001555907        0.0001165394       -0.0000658275
  N         0.0003111531       -0.0000859045        0.0000658947
  N        -0.0001774434       -0.0000373082       -0.0000185948
  N        -0.0000350723       -0.0001183373        0.0001925121
  N        -0.0000060852        0.0001368673        0.0002153959
  N        -0.0001858999        0.0000632609        0.0000530634
  N        -0.0000260207        0.0000646091       -0.0003176360
  N         0.0000558375        0.0000314506       -0.0000575157
      56
 i =        8, time =        8.000, E =      -152.8381045335
  C        -0.0000475186        0.0000366053       -0.0000259682
  C         0.0001373785        0.0003819652       -0.0000733427
  C         0.0000554198        0.0000446012       -0.0001758602