#     Step Nr.          Time[fs]        Kin.[a.u.]          Temp[K]            Pot.[a.u.]        Cons Qty[a.u.]        UsedTime[s]
         0            0.000000         0.007125335       300.000000000      -180.715692326      -180.708566992         0.000000000
         1            1.000000         0.010544532       443.959462322      -180.722430805      -180.711321661        42.095307112
         2            2.000000         0.019473708       819.907109515      -180.728674657      -180.710968837        16.838934898
         3            3.000000         0.027392862      1153.329504594      -180.736766816      -180.710490729        18.064693213
         4            4.000000         0.036149541      1522.014475570      -180.745835568      -180.709786801        18.013963938
         5            5.000000         0.046386801      1953.036786938      -180.755270158      -180.708977242        18.039968967
         6            6.000000         0.052371355      2205.006166414      -180.764231142      -180.708109236        18.009594917
         7            7.000000         0.058631875      2468.594616531      -180.772517377      -180.707237820        17.981878996
         8            8.000000         0.065653642      2764.234101791      -180.779148103      -180.706086356        17.996195078
         9            9.000000         0.071093929      2993.288048546      -180.783780627      -180.705000145        17.968779087
        10           10.000000         0.076206938      3208.562537171      -180.786279364      -180.704084330        17.983290911
