#     Step Nr.          Time[fs]        Kin.[a.u.]          Temp[K]            Pot.[a.u.]        Cons Qty[a.u.]        UsedTime[s]
         0            0.000000         0.007125335       300.000000000      -180.715692326      -180.708566992         0.000000000
         1            1.000000         0.010544532       443.959462322      -180.722430805      -180.711321661        19.968907833
         2            2.000000         0.019473708       819.907109515      -180.728674657      -180.710968837         7.757126093
         3            3.000000         0.027392862      1153.329504594      -180.736766816      -180.710490729         8.415157080
         4            4.000000         0.036149541      1522.014475570      -180.745835568      -180.709786801         8.446152925
         5            5.000000         0.046386801      1953.036786938      -180.755270158      -180.708977242         8.600785017
         6            6.000000         0.052371355      2205.006166414      -180.764231142      -180.708109236         8.480360985
         7            7.000000         0.058631875      2468.594616531      -180.772517377      -180.707237820         8.401098013
         8            8.000000         0.065653642      2764.234101791      -180.779148103      -180.706086356         8.334728003
         9            9.000000         0.071093929      2993.288048546      -180.783780627      -180.705000145         8.684622049
        10           10.000000         0.076206938      3208.562537171      -180.786279364      -180.704084330         8.398972034
        11           11.000000         0.072875554      3068.300307120      -180.785987357      -180.703090025         8.484357834
        12           12.000000         0.067095463      2824.939505352      -180.782958948      -180.702419553         8.413222075
        13           13.000000         0.057707555      2429.677724963      -180.777296088      -180.701830407         8.434360981
        14           14.000000         0.051735792      2178.246852509      -180.770056873      -180.701247767         8.381286144
        15           15.000000         0.043938835      1849.969352506      -180.761881421      -180.700632122         8.624492884
        16           16.000000         0.032881724      1384.428644719      -180.755103508      -180.700497469         8.605287075
        17           17.000000         0.028827533      1213.733862009      -180.750205709      -180.700254178         8.360083818
        18           18.000000         0.026230031      1104.370510921      -180.749101505      -180.700404261         7.826189041
        19           19.000000         0.027013215      1137.345112338      -180.752360702      -180.700635483         7.815006971
        20           20.000000         0.032257037      1358.127253162      -180.760494453      -180.701335115         7.750684023
        21           21.000000         0.044622485      1878.753279658      -180.772455114      -180.701964985         7.757495165
        22           22.000000         0.057648983      2427.211626236      -180.785775919      -180.701037179         7.881109953
        23           23.000000         0.069503108      2926.309252870      -180.801677506      -180.702153763         8.437443972
        24           24.000000         0.075227448      3167.322779405      -180.814448646      -180.701216155         7.946578026
        25           25.000000         0.084350268      3551.423474108      -180.827711469      -180.702771079         8.443480968
        26           26.000000         0.089376373      3763.039025298      -180.837986191      -180.704239262         8.417162895
        27           27.000000         0.089302010      3759.908108779      -180.844679788      -180.705621455         8.383588076
        28           28.000000         0.084402921      3553.640371822      -180.848612782      -180.707480468         8.380475998
        29           29.000000         0.082881620      3489.588570931      -180.848643430      -180.708362650         8.528605938
        30           30.000000         0.073633518      3100.213115593      -180.846348488      -180.709254257         8.479758978
        31           31.000000         0.067533007      2843.361513591      -180.842787527      -180.710366232         8.383049011
        32           32.000000         0.060179603      2533.759066261      -180.837601945      -180.710624594         8.452278137
        33           33.000000         0.051087735      2150.961531328      -180.832040055      -180.711053824         8.696169853
        34           34.000000         0.044568505      1876.480544515      -180.826422500      -180.711284728         8.664488077
        35           35.000000         0.038360761      1615.114118456      -180.821522534      -180.711546379         8.404308081
        36           36.000000         0.032240907      1357.448145339      -180.818034257      -180.712237021         8.414088011
        37           37.000000         0.026298532      1107.254629405      -180.815348704      -180.712366938         8.319620848
        38           38.000000         0.025111271      1057.267022516      -180.813765672      -180.712305641         7.759425163
        39           39.000000         0.023450236       987.331995409      -180.813397451      -180.712160101         8.477763891
        40           40.000000         0.024584455      1035.086345508      -180.814161452      -180.711979604         8.856122971
        41           41.000000         0.025146637      1058.756048395      -180.815070716      -180.710967435         8.454414129
        42           42.000000         0.028352269      1193.723693790      -180.817433451      -180.710619434         8.670902967
        43           43.000000         0.032096870      1351.383718853      -180.820257090      -180.710216935         8.478677988
        44           44.000000         0.035145927      1479.759042246      -180.823151574      -180.709693842         8.440021992
        45           45.000000         0.038191909      1608.004903096      -180.826074816      -180.709336113         8.499125957
        46           46.000000         0.038705649      1629.635004181      -180.828539951      -180.708910561         7.848027945
        47           47.000000         0.040288755      1696.288978984      -180.830295287      -180.708331647         7.915222168
        48           48.000000         0.038513847      1621.559515175      -180.831762613      -180.707804063         8.467572927
        49           49.000000         0.037521918      1579.796068111      -180.834162606      -180.708463209         8.413198948
        50           50.000000         0.038109537      1604.536768986      -180.834803031      -180.707646084         7.837803125
        51           51.000000         0.040179094      1691.671896383      -180.835218681      -180.706985588         8.661957026
        52           52.000000         0.041647449      1753.494470029      -180.835514037      -180.706509141         8.515333891
