       6
 i =        0, time =        0.000, E =      -180.7156923261
 Ti         2.3266360760        2.3266360760        1.4846014980
 Ti         0.0000000000        0.0000000000        0.0000000000
  O         0.9093424080        3.7439296250        1.4846014980
  O         3.7439296250        0.9093424080        1.4846014980
  O         1.4172936680        1.4172936680        0.0000000000
  O         3.2359786030        3.2359786030        0.0000000000
       6
 i =        1, time =        1.000, E =      -180.7224308048
 Ti         2.3271858872        2.3268169177        1.4837460719
 Ti        -0.0021795575        0.0016662396       -0.0013905108
  O         0.9027153261        3.7446998882        1.4798889774
  O         3.7508773479        0.9042169185        1.4880058972
  O         1.4235992293        1.4177121371        0.0013697628
  O         3.2342284970        3.2344014844        0.0065688184
       6
 i =        2, time =        2.000, E =      -180.7286746574
 Ti         2.3277239621        2.3270268308        1.4827191354
 Ti        -0.0045136893        0.0034531193       -0.0029148222
  O         0.8934628215        3.7476973908        1.4750098463
  O         3.7605882664        0.8964838846        1.4916956438
  O         1.4326334362        1.4203964206        0.0029846005
  O         3.2301372422        3.2304948944        0.0136754201
       6
 i =        3, time =        3.000, E =      -180.7367668165
 Ti         2.3281835091        2.3272835909        1.4815021297
 Ti        -0.0069029441        0.0052797185       -0.0045438542
  O         0.8821454012        3.7526873536        1.4703300236
  O         3.7725981148        0.8865025879        1.4955024057
  O         1.4439948323        1.4252234799        0.0048826370
  O         3.2239231763        3.2244319492        0.0210303216
       6
 i =        4, time =        4.000, E =      -180.7458355683
 Ti         2.3285197788        2.3276093018        1.4800479864
 Ti        -0.0093244951        0.0071235657       -0.0062981551
  O         0.8691940534        3.7594046585        1.4660404108
  O         3.7865687212        0.8745480696        1.4993789508
  O         1.4573914814        1.4320223137        0.0071441324
  O         3.2158110051        3.2163998278        0.0285974558
       6
 i =        5, time =        5.000, E =      -180.7552701576
 Ti         2.3286978243        2.3280297063        1.4782879936
 Ti        -0.0117984622        0.0089949151       -0.0082292824
  O         0.8549123801        3.7676341051        1.4622404614
  O         3.8022823292        0.8608167849        1.5033553552
  O         1.4726407250        1.4406591776        0.0098790524
  O         3.2059721311        3.2065326988        0.0365000696
       6
 i =        6, time =        6.000, E =      -180.7642311417
 Ti         2.3286789405        2.3285541848        1.4762178419
 Ti        -0.0142558567        0.0108365773       -0.0103204541
  O         0.8401157961        3.7768087164        1.4591505239
  O         3.8189762531        0.8460467342        1.5073447659
  O         1.4890017638        1.4506217990        0.0130944894
  O         3.1950038487        3.1953949053        0.0445973621
       6
 i =        7, time =        7.000, E =      -180.7725173768
 Ti         2.3284320862        2.3292159909        1.4737408030
 Ti        -0.0167555117        0.0126874548       -0.0126596328
  O         0.8247777967        3.7867679439        1.4567996445
  O         3.8368107079        0.8301850830        1.5114722750
  O         1.5066422508        1.4618118879        0.0169475389
  O         3.1830166760        3.1830623824        0.0531697861
       6
 i =        8, time =        8.000, E =      -180.7791481029
 Ti         2.3279219461        2.3300404134        1.4707992906
 Ti        -0.0193052189        0.0145465191       -0.0152966762
  O         0.8091383289        3.7971536679        1.4552949076
  O         3.8555884950        0.8134135211        1.5157864751
  O         1.5254188915        1.4739094200        0.0215345413
  O         3.1703301444        3.1698210689        0.0623113539
       6
 i =        9, time =        9.000, E =      -180.7837806267
 Ti         2.3271066957        2.3310588860        1.4673298283
 Ti        -0.0219191429        0.0164135950       -0.0182915314
  O         0.7934770418        3.8076489534        1.4547510486
  O         3.8750311467        0.7959366450        1.5203505855
  O         1.5451129195        1.4866444718        0.0269733262
  O         3.1571809879        3.1558654477        0.0720992494
       6
 i =       10, time =       10.000, E =      -180.7862793641
 Ti         2.3259184433        2.3323303159        1.4632005599
 Ti        -0.0246572422        0.0183187268       -0.0217663243
  O         0.7778535598        3.8181678100        1.4552999434
  O         3.8952433221        0.7777469169        1.5253262920
  O         1.5658718799        1.5000362998        0.0335098861
  O         3.1435326026        3.1410907703        0.0827629025
