      12
 i =        0, time =        0.000, E =       -36.9822654678
  C         6.2869000000        6.8116500000        7.5000000000
  C         6.2972000000        8.2064500000        7.5001000000
  C         7.4897000000        6.1052500000        7.5000000000
  C         7.5104000000        8.8948500000        7.4999000000
  C         8.7028000000        6.7937500000        7.5000000000
  C         8.7131000000        8.1884500000        7.5000000000
  H         5.3423000000        6.2756500000        7.5000000000
  H         5.3607000000        8.7564500000        7.5001000000
  H         7.4816000000        5.0191500000        7.4999000000
  H         7.5184000000        9.9808500000        7.5000000000
  H         9.6394000000        6.2437500000        7.5001000000
  H         9.6577000000        8.7245500000        7.5000000000
      12
 i =        1, time =        0.250, E =       -36.9821695245
  C         6.2877126310        6.8112860107        7.4996016023
  C         6.2968421587        8.2067293292        7.4994597858
  C         7.4882459604        6.1052049774        7.4987620574
  C         7.5117550558        8.8939116529        7.5006648299
  C         8.7040065398        6.7936233045        7.5002497882
  C         8.7128624522        8.1883818808        7.5015325001
  H         5.3413542497        6.2736695125        7.5035449588
  H         5.3536341783        8.7526483447        7.4971120722
  H         7.4760358033        5.0238026530        7.4962026098
  H         7.5166666954        9.9899617984        7.4974391285
  H         9.6368172111        6.2512567325        7.4974517198
  H         9.6598055218        8.7241093512        7.5051254543
      12
 i =        2, time =        0.500, E =       -36.9818129651
  C         6.2884856391        6.8109175410        7.4992094707
  C         6.2964615983        8.2070178302        7.4988284130
  C         7.4868201109        6.1051423138        7.4975414810
  C         7.5130826681        8.8930297179        7.5014182254
  C         8.7052065814        6.7934908395        7.5004955097
  C         8.7126558709        8.1883254643        7.5030439155
  H         5.3403435972        6.2716750603        7.5070339511
  H         5.3466307611        8.7489511749        7.4941685022
  H         7.4705606786        5.0281621335        7.4925587516
  H         7.5149697310        9.9988880418        7.4949191160
  H         9.6344986999        6.2585045702        7.4948437162
  H         9.6619628270        8.7237270797        7.5101754801
      12
 i =        3, time =        0.750, E =       -36.9812172696
  C         6.2892346833        6.8105353035        7.4988132027
  C         6.2960439387        8.2073242633        7.4981879744
  C         7.4853886932        6.1050668529        7.4963038464
  C         7.5144134434        8.8921963374        7.5021806051
  C         8.7064201247        6.7933540387        7.5007435559
  C         8.7124797976        8.1882790548        7.5045774069
  H         5.3392779637        6.2696350599        7.5105589783
  H         5.3395694763        8.7452370942        7.4911887606
  H         7.4650322034        5.0322589526        7.4888666975
  H         7.5132718091       10.0077006344        7.4923747878
  H         9.6324943242        6.2656135344        7.4922048428
  H         9.6641977840        8.7233786382        7.5152889428
      12
 i =        4, time =        1.000, E =       -36.9804390399
  C         6.2899385745        6.8101480562        7.4984213922
  C         6.2955939221        8.2076430988        7.4975511439
  C         7.4839867542        6.1049863229        7.4950738843
  C         7.5157139594        8.8914440360        7.5029358601
  C         8.7076093003        6.7932206448        7.5009884719
  C         8.7123431701        8.1882435402        7.5061029362
  H         5.3382168344        6.2676147976        7.5140429304
  H         5.3326672071        8.7415643808        7.4882350929
  H         7.4595724778        5.0359221275        7.4852008458
  H         7.5116179939       10.0160576583        7.4898635971
  H         9.6309582298        6.2723591556        7.4895895112
  H         9.6664305945        8.7230571202        7.5203599042
      12
 i =        5, time =        1.250, E =       -36.9795251547
  C         6.2906022583        6.8097509935        7.4980286272
  C         6.2951012879        8.2079797318        7.4969078711
  C         7.4825987839        6.1049051660        7.4938324644
  C         7.5169977587        8.8907753103        7.5036948433
  C         8.7087795991        6.7930932630        7.5012336164
  C         8.7122490366        8.1882183189        7.5076449041
  H         5.3371810728        6.2656068330        7.5175331610
  H         5.3258893915        8.7378614824        7.4852644160
  H         7.4541077367        5.0391272863        7.4815044299
  H         7.5099939071       10.0239404408        7.4873535463
  H         9.6299734594        6.2787694904        7.4869580032
  H         9.6686611538        8.7227436848        7.5254633294
      12
 i =        6, time =        1.500, E =       -36.9785372898
  C         6.2912198191        6.8093452331        7.4976354506
  C         6.2945625997        8.2083347052        7.4962577054
  C         7.4812305812        6.1048283289        7.4925790451
  C         7.5182585707        8.8902032662        7.5044569458
  C         8.7099191758        6.7929760871        7.5014786653
  C         8.7122026556        8.1882034184        7.5092047463
  H         5.3362064421        6.2636336522        7.5210239268
  H         5.3193039745        8.7341143357        7.4822785371
  H         7.4486468657        5.0417994795        7.4777758440
  H         7.5084107310       10.0312157309        7.4848512193
  H         9.6296412802        6.2847739820        7.4843096141
  H         9.6708562499        8.7224248021        7.5305972190
      12
 i =        7, time =        1.750, E =       -36.9775742720
  C         6.2917675357        6.8089444548        7.4972543531
  C         6.2939918792        8.2086973277        7.4956200230
  C         7.4799290023        6.1047620988        7.4913513083
  C         7.5194523477        8.8897553638        7.5051983724
  C         8.7109833520        6.7928760244        7.5017158845
  C         8.7122096748        8.1881991634        7.5107363377
  H         5.3353550889        6.2617757860        7.5244033630
  H         5.3131711729        8.7304258056        7.4793702547
  H         7.4433642828        5.0438019517        7.4741269967
  H         7.5069270428       10.0375554911        7.4824393155
  H         9.6300493084        6.2901347979        7.4817238692
  H         9.6729182330        8.7220974896        7.5356031040
      12
 i =        8, time =        2.000, E =       -36.9766657672
  C         6.2922600381        6.8085359600        7.4968724221
  C         6.2933670384        8.2090803305        7.4949719157
  C         7.4786531503        6.1047069633        7.4901054716
  C         7.5206156791        8.8894244375        7.5059446767
  C         8.7120013149        6.7927920230        7.5019533730
  C         8.7122742690        8.1882052951        7.5122950878
  H         5.3346264303        6.2599864419        7.5277848973
  H         5.3073290607        8.7266574980        7.4764390560
  H         7.4380818793        5.0451625374        7.4704276263
  H         7.5055007500       10.0430928425        7.4800394542
  H         9.6312723998        6.2949962182        7.4791083294
  H         9.6748914205        8.7217387074        7.5406551669
      12
 i =        9, time =        2.250, E =       -36.9758707332
  C         6.2926883202        6.8081244548        7.4964931941
  C         6.2926908360        8.2094806889        7.4943179397
  C         7.4774182183        6.1046651038        7.4888506091
  C         7.5217336293        8.8892218629        7.5066894470
  C         8.7129579486        6.7927264638        7.5021889820
  C         8.7124002322        8.1882217871        7.5138704930
  H         5.3340541024        6.2582975712        7.5311359474
  H         5.3018763072        8.7228327801        7.4735099094
  H         7.4328497417        5.0458336854        7.4667048000
  H         7.5041539430       10.0476983261        7.4776775417
  H         9.6333517999        6.2992803039        7.4764820477
  H         9.6767332343        8.7213406328        7.5457116651
      12
 i =       10, time =        2.500, E =       -36.9752270421
  C         6.2930488128        6.8077105543        7.4961162389
  C         6.2919600613        8.2098991314        7.4936559044
  C         7.4762259011        6.1046368290        7.4875827708
  C         7.5228035226        8.8891542480        7.5074340488
  C         8.7138507525        6.7926798058        7.5024230010
  C         8.7125916240        8.1882486562        7.5154683286
  H         5.3336608434        6.2567206440        7.5344589606
  H         5.2968449421        8.7189389602        7.4705773110
  H         7.4276634007        5.0457974293        7.4629473003
  H         7.5028936587       10.0513143257        7.4753545690
  H         9.6363189770        6.3029722722        7.4738371483
  H         9.6784243086        8.7208930599        7.5507833089
      12
 i =       11, time =        2.750, E =       -36.9747718838
  C         6.2933305285        6.8073045247        7.4957497336
  C         6.2911891583        8.2103264639        7.4929988252
  C         7.4751046025        6.1046216590        7.4863270309
  C         7.5237987355        8.8892275040        7.5081628344
  C         8.7146594154        6.7926523616        7.5026503265
  C         8.7128472141        8.1882852095        7.5170577060
  H         5.3334732777        6.2553002281        7.5376804860
  H         5.2923728679        8.7150560993        7.4677028658
  H         7.4226372235        5.0450572797        7.4592304441
  H         7.5017548669       10.0538211839        7.4731243407
  H         9.6401077010        6.3059899474        7.4712269556
  H         9.6799108402        8.7203979621        7.5557647066
      12
 i =       12, time =        3.000, E =       -36.9745045538
  C         6.2935355431        6.8069008655        7.4953874335
  C         6.2903641953        8.2107696111        7.4923341917
  C         7.4740374362        6.1046169205        7.4850595249
  C         7.5247330870        8.8894459790        7.5088887332
  C         8.7153989764        6.7926418991        7.5028747347
  C         8.7131737427        8.1883319266        7.5186694662
  H         5.3335019828        6.2540200803        7.5408540195
  H         5.2884056742        8.7111170550        7.4648356024
  H         7.4176881069        5.0436192358        7.4554852426
  H         7.5007253173       10.0552344875        7.4709521088
  H         9.6447565907        6.3083956132        7.4686037913
  H         9.6812047470        8.7198409727        7.5607453692
      12
 i =       13, time =        3.250, E =       -36.9744113653
  C         6.2936652316        6.8064902701        7.4950196067
  C         6.2894612898        8.2112403803        7.4916424748
  C         7.4729987212        6.1046189956        7.4837430038
  C         7.5256275147        8.8898209793        7.5096318995
  C         8.7160912573        6.7926457296        7.5031020589
  C         8.7135836738        8.1883901323        7.5203517257
  H         5.3337624886        6.2528544619        7.5440630962
  H         5.2848627437        8.7070160495        7.4618958230
  H         7.4126870413        5.0414616144        7.4516042281
  H         7.4997865285       10.0555520347        7.4687834377
  H         9.6503628069        6.3102630273        7.4658939216
  H         9.6823267034        8.7192013841        7.5658652848
      12
 i =       14, time =        3.500, E =       -36.9744779102
  C         6.2937081228        6.8061044749        7.4946731323
  C         6.2885467651        8.2117035680        7.4909729362
  C         7.4720661304        6.1046228771        7.4824710406
  C         7.5264138718        8.8903259291        7.5103385457
  C         8.7166908865        6.7926599135        7.5033154019
  C         8.7140485018        8.1884553529        7.5219854220
  H         5.3342410387        6.2518918298        7.5470717395
  H         5.2820116305        8.7030585170        7.4590962501
  H         7.4080039525        5.0387888204        7.4478664187
  H         7.4990135698       10.0547479966        7.4667797271
  H         9.6564475846        6.3114885506        7.4632942937
  H         9.6831885829        8.7185237211        7.5707552841
      12
 i =       15, time =        3.750, E =       -36.9746733486
  C         6.2936657647        6.8057410474        7.4943442450
  C         6.2876136900        8.2121625713        7.4903176836
  C         7.4712295245        6.1046229041        7.4812282732
  C         7.5271000629        8.8909610071        7.5110166250
  C         8.7172126921        6.7926800177        7.5035167315
  C         8.7145716067        8.1885276956        7.5235904437
  H         5.3349359518        6.2511181131        7.5499117137
  H         5.2798071182        8.6992134314        7.4564053715
  H         7.4035924467        5.0356492448        7.4442301151
  H         7.4984001774       10.0528593321        7.4649204706
  H         9.6629669722        6.3121429386        7.4607783633
  H         9.6838040186        8.7178028691        7.5754712460
      12
 i =       16, time =        4.000, E =       -36.9749683130
  C         6.2935357905        6.8053868402        7.4940193369
  C         6.2866253205        8.2126350753        7.4896485647
  C         7.4704553106        6.1046126976        7.4799608885
  C         7.5277125467        8.8917500969        7.5116946219
  C         8.7176863637        6.7927020601        7.5037139089
  C         8.7151745706        8.1886097966        7.5252366059
  H         5.3358709131        6.2504989319        7.5526992630
  H         5.2781500927        8.6953344211        7.4537098910
  H         7.3992763435        5.0319820340        7.4405422649
  H         7.4979255721       10.0498361213        7.4631307028
  H         9.6700893610        6.3123023430        7.4582436864
  H         9.6842013671        8.7170111938        7.5802129047
      12
 i =       17, time =        4.250, E =       -36.9753211318
  C         6.2933147568        6.8050412428        7.4936958602
  C         6.2855747121        8.2131237327        7.4889587749
  C         7.4697396219        6.1045848160        7.4786554997
  C         7.5282526812        8.8926998161        7.5123784724
  C         8.7181237541        6.7927209697        7.5039078607
  C         8.7158637445        8.1887021675        7.5269417953
  H         5.3370498346        6.2500282555        7.5554545276
  H         5.2770260387        8.6914053680        7.4509856390
  H         7.3950305121        5.0278218787        7.4367695761
  H         7.4975935029       10.0456671372        7.4613991838
  H         9.6777743460        6.3120101671        7.4556719978
  H         9.6843852556        8.7161447234        7.5850243264
      12
 i =       18, time =        4.500, E =       -36.9756790477
  C         6.2930053854        6.8047131938        7.4933800236
  C         6.2844838631        8.2136177600        7.4882601367
  C         7.4690980007        6.1045318487        7.4773338426
  C         7.5287071339        8.8937900903        7.5130556252
  C         8.7185257415        6.7927307247        7.5040941438
  C         8.7166265628        8.1888028084        7.5286780301
  H         5.3384405750        6.2497106396        7.5581230358
  H         5.2764450229        8.6875202970        7.4482818541
  H         7.3909463323        5.0233230610        7.4329811988
  H         7.4974166590       10.0404660008        7.4597612052
  H         9.6857641761        6.3113210339        7.4531157164
  H         9.6843588650        8.7152248718        7.5898198665
      12
 i =       19, time =        4.750, E =       -36.9759947668
  C         6.2926151811        6.8044120187        7.4930786466
  C         6.2833801103        8.2141045308        7.4875668807
  C         7.4685448379        6.1044472101        7.4760220722
  C         7.5290647582        8.8949907725        7.5137118338
  C         8.7188938449        6.7927254814        7.5042679877
  C         8.7174449068        8.1889090858        7.5304111238
  H         5.3399941814        6.2495431767        7.5606460589
  H         5.2763908603        8.6837862175        7.4456546000
  H         7.3871218356        5.0186702318        7.4292584243
  H         7.4974016435       10.0344170189        7.4582525825
  H         9.6937612919        6.3103084802        7.4506349939
  H         9.6841374984        8.7142797962        7.5945008107
      12
 i =       20, time =        5.000, E =       -36.9762372907
  C         6.2921427143        6.8041373153        7.4927891164
  C         6.2822586562        8.2145860371        7.4868724124
  C         7.4680753289        6.1043227492        7.4747068547
  C         7.5293280670        8.8963031039        7.5143530858
  C         8.7192414538        6.7926997840        7.5044301218
  C         8.7183231241        8.1890213911        7.5321587505
  H         5.3416996016        6.2495116001        7.5630445877
  H         5.2768247328        8.6801970320        7.4430789791
  H         7.3835340600        5.0139130252        7.4255698389
  H         7.4975493024       10.0275625297        7.4568595847
  H         9.7017086843        6.3090234861        7.4482142612
  H         9.6837387496        8.7133118345        7.5991117486
      12
 i =       21, time =        5.250, E =       -36.9763763153
  C         6.2915873089        6.8038900019        7.4925099245
  C         6.2811185745        8.2150624980        7.4861724345
  C         7.4676873128        6.1041503331        7.4733791037
  C         7.5294975247        8.8977242374        7.5149831004
  C         8.7195802131        6.7926481646        7.5045805338
  C         8.7192631779        8.1891398406        7.5339330448
  H         5.3435386810        6.2496017503        7.5653301046
  H         5.2777078365        8.6767631761        7.4405389949
  H         7.3801757999        5.0091139336        7.4218969594
  H         7.4978616560       10.0199712148        7.4555738194
  H         9.7095265124        6.3075146394        7.4458471930
  H         9.6831821189        8.7123277977        7.6036812910
      12
 i =       22, time =        5.500, E =       -36.9763853779
  C         6.2909554068        6.8036742249        7.4922430888
  C         6.2799736777        8.2155280082        7.4854714651
  C         7.4673836668        6.1039241171        7.4720463660
  C         7.5295713429        8.8992322547        7.5155977149
  C         8.7199170630        6.7925659587        7.5047172507
  C         8.7202550168        8.1892630885        7.5357238980
  H         5.3454669605        6.2497968261        7.5674851425
  H         5.2789860145        8.6735414066        7.4380503808
  H         7.3770833045        5.0043928652        7.4182677926
  H         7.4983366049       10.0118220967        7.4544023714
  H         9.7170411587        6.3058456408        7.4435576926
  H         9.6824966485        8.7113483944        7.6081806252
      12
 i =       23, time =        5.750, E =       -36.9762537076
  C         6.2902644714        6.8034964524        7.4919941052
  C         6.2788544311        8.2159702609        7.4847840048
  C         7.4671695767        6.1036431530        7.4707351800
  C         7.5295490230        8.9007805028        7.5161845076
  C         8.7202535327        6.7924507187        7.5048366651
  C         8.7212730479        8.1893879270        7.5374953735
  H         5.3474078326        6.2500734078        7.5694648207
  H         5.2805735439        8.6706312550        7.4356626643
  H         7.3743307612        4.9999301074        7.4147608887
  H         7.4989609282       10.0034382997        7.4533651801
  H         9.7239876551        6.3041030075        7.4414004181
  H         9.6817263291        8.7104093082        7.6125188968
      12
 i =       24, time =        6.000, E =       -36.9759813994
  C         6.2895127468        6.8033565255        7.4917603111
  C         6.2777564346        8.2163911773        7.4841031474
  C         7.4670410335        6.1033001363        7.4694313567
  C         7.5294322981        8.9023674855        7.5167499321
  C         8.7206005343        6.7922978859        7.5049393429
  C         8.7223218825        8.1895149122        7.5392661873
  H         5.3493421114        6.2504133836        7.5712900748
  H         5.2824217772        8.6680351528        7.4333491298
  H         7.3718981208        4.9957543112        7.4113439117
  H         7.4997355541        9.9949058872        7.4524454379
  H         9.7303411823        6.3023162939        7.4393599853
  H         9.6808953560        8.7095170279        7.6167427286
      12
 i =       25, time =        6.250, E =       -36.9755462187
  C         6.2886624536        6.8032494362        7.4915290816
  C         6.2766268712        8.2168107942        7.4833915672
  C         7.4669915726        6.1028704112        7.4680622083
  C         7.5292140102        8.9040633934        7.5173252216
  C         8.7209842755        6.7920948888        7.5050298202
  C         8.7234543476        8.1896503739        7.5411347687
  H         5.3513354420        6.2508154321        7.5730580719
  H         5.2845724684        8.6656524345        7.4309814216
  H         7.3696683825        4.9917109626        7.4078339857
  H         7.5007017044        9.9859366672        7.4515882574
  H         9.7363487391        6.3004279899        7.4373335836
  H         9.6799897712        8.7086405885        7.6210847402
      12
 i =       26, time =        6.500, E =       -36.9749580508
  C         6.2877417818        6.8031812879        7.4913074337
  C         6.2755067070        8.2172135667        7.4826700450
  C         7.4670237991        6.1023605441        7.4666663865
  C         7.5288991694        8.9058001265        7.5178938719
  C         8.7214003838        6.7918433572        7.5051042086
  C         8.7246325162        8.1897896658        7.5430480099
  H         5.3532856748        6.2512465705        7.5747132304
  H         5.2868997416        8.6635995826        7.4286271184
  H         7.3677258514        4.9879911407        7.4043385525
  H         7.5018304731        9.9769946608        7.4508133980
  H         9.7417341827        6.2985303072        7.4353903513
  H         9.6790699713        8.7078253733        7.6254188602
      12
 i =       27, time =        6.750, E =       -36.9742541544
  C         6.2867736969        6.8031552268        7.4910995231
  C         6.2744250640        8.2175890472        7.4819524588
  C         7.4671359929        6.1017768864        7.4652695711
  C         7.5284950905        8.9075235979        7.5184458121
  C         8.7218463182        6.7915453341        7.5051602897
  C         8.7258277426        8.1899292709        7.5449700356
  H         5.3551110840        6.2516756371        7.5762234417
  H         5.2892882866        8.6619549621        7.4263283507
  H         7.3661187171        4.9847240079        7.4009279812
  H         7.5030949846        9.9684685232        7.4501264533
  H         9.7463191778        6.2966925161        7.4335745738
  H         9.6781893560        8.7071058180        7.6296644491
      12
 i =       28, time =        7.000, E =       -36.9734759308
  C         6.2857592137        6.8031724082        7.4909040582
  C         6.2733837232        8.2179367630        7.4812352131
  C         7.4673268355        6.1011144755        7.4638636974
  C         7.5280019394        8.9092211060        7.5189849421
  C         8.7223286265        6.7911973610        7.5051977495
  C         8.7270397395        8.1900689905        7.5469111908
  H         5.3567776392        6.2520820745        7.5775971950
  H         5.2916790499        8.6607453842        7.4240698848
  H         7.3648464307        4.9819391555        7.3975874508
  H         7.5044949296        9.9605368071        7.4495128663
  H         9.7500688332        6.2949327473        7.4318825957
  H         9.6773787433        8.7064961975        7.6338461241
      12
 i =       29, time =        7.250, E =       -36.9726990196
  C         6.2847240204        6.8032331909        7.4907244012
  C         6.2724091603        8.2182481582        7.4805320409
  C         7.4675900830        6.1003854389        7.4624747720
  C         7.5274321935        8.9108391324        7.5195022756
  C         8.7228411498        6.7908049938        7.5052154857
  C         8.7282389634        8.1902052302        7.5488348241
  H         5.3582130475        6.2524365315        7.5788101644
  H         5.2939578940        8.6600237356        7.4218908989
  H         7.3639373151        4.9797230348        7.3943822565
  H         7.5059957518        9.9535662144        7.4489720859
  H         9.7528714322        6.2933061247        7.4303506556
  H         9.6766869466        8.7060244556        7.6378876201
      12
 i =       30, time =        7.500, E =       -36.9719362253
  C         6.2836050058        6.8033429962        7.4905485253
  C         6.2714440905        8.2185415309        7.4797964154
  C         7.4679421893        6.0995400434        7.4610098282
  C         7.5267493951        8.9124631023        7.5200331962
  C         8.7234208713        6.7903404385        7.5052139126
  C         8.7294987428        8.1903460645        7.5508692046
  H         5.3594692188        6.2527410599        7.5799414372
  H         5.2962092993        8.6597804046        7.4196440060
  H         7.3633420382        4.9779651100        7.3911028950
  H         7.5076920329        9.9473229562        7.4484571644
  H         9.7548632329        6.2917237642        7.4288835357
  H         9.6761021929        8.7056776293        7.6420587134
      12
 i =       31, time =        7.750, E =       -36.9713195380
  C         6.2824977436        6.8034936135        7.4903902462
  C         6.2705721360        8.2187916621        7.4790873473
  C         7.4683530333        6.0986463439        7.4595855467
  C         7.5260106372        8.9139426391        7.5205364019
  C         8.7240230356        6.7898400940        7.5051926577
  C         8.7307119941        8.1904792977        7.5528519291
  H         5.3604070019        6.2529519569        7.5809002629
  H         5.2981917965        8.6600653871        7.4175060462
  H         7.3631147328        4.9768284583        7.3880139329
  H         7.5094418854        9.9425137040        7.4479979180
  H         9.7558548599        6.2903255306        7.4276031604
  H         9.6757020711        8.7054992689        7.6460276140
      12
 i =       32, time =        8.000, E =       -36.9708477700
  C         6.2812747552        6.8037041555        7.4902304714
  C         6.2696954681        8.2190266199        7.4783198096
  C         7.4688712058        6.0975969046        7.4580302188
  C         7.5251283830        8.9154349405        7.5210733318
  C         8.7247214989        6.7892425606        7.5051483665
  C         8.7320182129        8.1906200134        7.5550219594
  H         5.3610982019        6.2530755436        7.5817988483
  H         5.3000843529        8.6609497768        7.4152180447
  H         7.3632400173        4.9762004757        7.3847474426
  H         7.5114517057        9.9387710666        7.4475293086
  H         9.7559285782        6.2889544141        7.4263621658
  H         9.6754697332        8.7054852333        7.6502718690
      12
 i =       33, time =        8.250, E =       -36.9706228620
  C         6.2800413098        6.8039585018        7.4900822473
  C         6.2688927044        8.2192252714        7.4775566170
  C         7.4694541826        6.0964775695        7.4564702351
  C         7.5241753564        8.9167982654        7.5216009926
  C         8.7254602821        6.7885952133        7.5050836955
  C         8.7333043487        8.1907558384        7.5572031492
  H         5.3614450572        6.2530836071        7.5825589924
  H         5.3016766516        8.6624006821        7.4129652940
  H         7.3637224717        4.9761536062        7.3815736933
  H         7.5135548948        9.9366027121        7.4470812978
  H         9.7550417046        6.2877301381        7.4252692737
  H         9.6754548804        8.7056543991        7.6544449942
      12
 i =       34, time =        8.500, E =       -36.9706865124
  C         6.2787894614        6.8042584859        7.4899434900
  C         6.2681585147        8.2193896603        7.4767893027
  C         7.4701057235        6.0952796948        7.4548880788
  C         7.5231445374        8.9180353259        7.5221262422
  C         8.7262461698        6.7878917546        7.5049977807
  C         8.7345790465        8.1908876975        7.5594202230
  H         5.3614269525        6.2529651054        7.5831887623
  H         5.3029498646        8.6644482130        7.4107206309
  H         7.3645682247        4.9766780810        7.3784573482
  H         7.5157690699        9.9360943308        7.4466420961
  H         9.7531935763        6.2866367035        7.4243137731
  H         9.6756763899        8.7060176760        7.6585954635
      12
 i =       35, time =        8.750, E =       -36.9710549221
  C         6.2775345933        6.8046002586        7.4898148685
  C         6.2675013105        8.2195188468        7.4760239952