
     Program PROJWFC v.6.7MaX starts on 25May2021 at  1: 6:48 

     This program is part of the open-source Quantum ESPRESSO suite
     for quantum simulation of materials; please cite
         "P. Giannozzi et al., J. Phys.:Condens. Matter 21 395502 (2009);
         "P. Giannozzi et al., J. Phys.:Condens. Matter 29 465901 (2017);
          URL http://www.quantum-espresso.org", 
     in publications or presentations arising from this work. More details at
     http://www.quantum-espresso.org/quote

     Parallel version (MPI), running on    12 processors

     MPI processes distributed on     1 nodes
     R & G space division:  proc/nbgrp/npool/nimage =      12

     Reading xml data from directory:

     ./Cs4SnBr6_T100.save/
     file Cs.pbe-spn-kjpaw_psl.1.0.0.UPF: wavefunction(s)  5S 6S renormalized
     file Sn.pbe-dn-kjpaw_psl.1.0.0.UPF: wavefunction(s)  5S 5P 4D renormalized
     file Br.pbe-n-kjpaw_psl.1.0.0.UPF: wavefunction(s)  4S 4P renormalized

     IMPORTANT: XC functional enforced from input :
     Exchange-correlation= PBE
                           (   1   4   3   4   0   0   0)
     Any further DFT definition will be discarded
     Please, verify this is what you really want


     Parallelization info
     --------------------
     sticks:   dense  smooth     PW     G-vecs:    dense   smooth      PW
     Min        2261     906    226               381387    96490   12054
     Max        2262     907    227               381390    96493   12061
     Sum       27139   10879   2713              4576663  1157901  144667


     Gaussian broadening (read from input): ngauss,degauss=   0    0.025000


     Calling projwave .... 

  Problem Sizes 
  natomwfc =          318
  nbnd     =          350
  nkstot   =            1
  npwx     =        12056
  nkb      =         1188


     Atomic states used for projection
     (read from pseudopotential files):

     state #   1: atom   1 (Cs ), wfc  1 (l=0 m= 1)
     state #   2: atom   1 (Cs ), wfc  2 (l=0 m= 1)
     state #   3: atom   1 (Cs ), wfc  3 (l=1 m= 1)
     state #   4: atom   1 (Cs ), wfc  3 (l=1 m= 2)
     state #   5: atom   1 (Cs ), wfc  3 (l=1 m= 3)
     state #   6: atom   2 (Cs ), wfc  1 (l=0 m= 1)
     state #   7: atom   2 (Cs ), wfc  2 (l=0 m= 1)
     state #   8: atom   2 (Cs ), wfc  3 (l=1 m= 1)
     state #   9: atom   2 (Cs ), wfc  3 (l=1 m= 2)
     state #  10: atom   2 (Cs ), wfc  3 (l=1 m= 3)
     state #  11: atom   3 (Cs ), wfc  1 (l=0 m= 1)
     state #  12: atom   3 (Cs ), wfc  2 (l=0 m= 1)
     state #  13: atom   3 (Cs ), wfc  3 (l=1 m= 1)
     state #  14: atom   3 (Cs ), wfc  3 (l=1 m= 2)
     state #  15: atom   3 (Cs ), wfc  3 (l=1 m= 3)
     state #  16: atom   4 (Cs ), wfc  1 (l=0 m= 1)
     state #  17: atom   4 (Cs ), wfc  2 (l=0 m= 1)
     state #  18: atom   4 (Cs ), wfc  3 (l=1 m= 1)
     state #  19: atom   4 (Cs ), wfc  3 (l=1 m= 2)
     state #  20: atom   4 (Cs ), wfc  3 (l=1 m= 3)
     state #  21: atom   5 (Cs ), wfc  1 (l=0 m= 1)
     state #  22: atom   5 (Cs ), wfc  2 (l=0 m= 1)
     state #  23: atom   5 (Cs ), wfc  3 (l=1 m= 1)
     state #  24: atom   5 (Cs ), wfc  3 (l=1 m= 2)
     state #  25: atom   5 (Cs ), wfc  3 (l=1 m= 3)
     state #  26: atom   6 (Cs ), wfc  1 (l=0 m= 1)
     state #  27: atom   6 (Cs ), wfc  2 (l=0 m= 1)
     state #  28: atom   6 (Cs ), wfc  3 (l=1 m= 1)
     state #  29: atom   6 (Cs ), wfc  3 (l=1 m= 2)
     state #  30: atom   6 (Cs ), wfc  3 (l=1 m= 3)
     state #  31: atom   7 (Cs ), wfc  1 (l=0 m= 1)
     state #  32: atom   7 (Cs ), wfc  2 (l=0 m= 1)
     state #  33: atom   7 (Cs ), wfc  3 (l=1 m= 1)
     state #  34: atom   7 (Cs ), wfc  3 (l=1 m= 2)
     state #  35: atom   7 (Cs ), wfc  3 (l=1 m= 3)
     state #  36: atom   8 (Cs ), wfc  1 (l=0 m= 1)
     state #  37: atom   8 (Cs ), wfc  2 (l=0 m= 1)
     state #  38: atom   8 (Cs ), wfc  3 (l=1 m= 1)
     state #  39: atom   8 (Cs ), wfc  3 (l=1 m= 2)
     state #  40: atom   8 (Cs ), wfc  3 (l=1 m= 3)
     state #  41: atom   9 (Cs ), wfc  1 (l=0 m= 1)
     state #  42: atom   9 (Cs ), wfc  2 (l=0 m= 1)
     state #  43: atom   9 (Cs ), wfc  3 (l=1 m= 1)
     state #  44: atom   9 (Cs ), wfc  3 (l=1 m= 2)
     state #  45: atom   9 (Cs ), wfc  3 (l=1 m= 3)
     state #  46: atom  10 (Cs ), wfc  1 (l=0 m= 1)
     state #  47: atom  10 (Cs ), wfc  2 (l=0 m= 1)
     state #  48: atom  10 (Cs ), wfc  3 (l=1 m= 1)
     state #  49: atom  10 (Cs ), wfc  3 (l=1 m= 2)
     state #  50: atom  10 (Cs ), wfc  3 (l=1 m= 3)
     state #  51: atom  11 (Cs ), wfc  1 (l=0 m= 1)
     state #  52: atom  11 (Cs ), wfc  2 (l=0 m= 1)
     state #  53: atom  11 (Cs ), wfc  3 (l=1 m= 1)
     state #  54: atom  11 (Cs ), wfc  3 (l=1 m= 2)
     state #  55: atom  11 (Cs ), wfc  3 (l=1 m= 3)
     state #  56: atom  12 (Cs ), wfc  1 (l=0 m= 1)
     state #  57: atom  12 (Cs ), wfc  2 (l=0 m= 1)
     state #  58: atom  12 (Cs ), wfc  3 (l=1 m= 1)
     state #  59: atom  12 (Cs ), wfc  3 (l=1 m= 2)
     state #  60: atom  12 (Cs ), wfc  3 (l=1 m= 3)
     state #  61: atom  13 (Cs ), wfc  1 (l=0 m= 1)
     state #  62: atom  13 (Cs ), wfc  2 (l=0 m= 1)
     state #  63: atom  13 (Cs ), wfc  3 (l=1 m= 1)
     state #  64: atom  13 (Cs ), wfc  3 (l=1 m= 2)
     state #  65: atom  13 (Cs ), wfc  3 (l=1 m= 3)
     state #  66: atom  14 (Cs ), wfc  1 (l=0 m= 1)
     state #  67: atom  14 (Cs ), wfc  2 (l=0 m= 1)
     state #  68: atom  14 (Cs ), wfc  3 (l=1 m= 1)
     state #  69: atom  14 (Cs ), wfc  3 (l=1 m= 2)
     state #  70: atom  14 (Cs ), wfc  3 (l=1 m= 3)
     state #  71: atom  15 (Cs ), wfc  1 (l=0 m= 1)
     state #  72: atom  15 (Cs ), wfc  2 (l=0 m= 1)
     state #  73: atom  15 (Cs ), wfc  3 (l=1 m= 1)
     state #  74: atom  15 (Cs ), wfc  3 (l=1 m= 2)
     state #  75: atom  15 (Cs ), wfc  3 (l=1 m= 3)
     state #  76: atom  16 (Cs ), wfc  1 (l=0 m= 1)
     state #  77: atom  16 (Cs ), wfc  2 (l=0 m= 1)
     state #  78: atom  16 (Cs ), wfc  3 (l=1 m= 1)
     state #  79: atom  16 (Cs ), wfc  3 (l=1 m= 2)
     state #  80: atom  16 (Cs ), wfc  3 (l=1 m= 3)
     state #  81: atom  17 (Cs ), wfc  1 (l=0 m= 1)
     state #  82: atom  17 (Cs ), wfc  2 (l=0 m= 1)
     state #  83: atom  17 (Cs ), wfc  3 (l=1 m= 1)
     state #  84: atom  17 (Cs ), wfc  3 (l=1 m= 2)
     state #  85: atom  17 (Cs ), wfc  3 (l=1 m= 3)
     state #  86: atom  18 (Cs ), wfc  1 (l=0 m= 1)
     state #  87: atom  18 (Cs ), wfc  2 (l=0 m= 1)
     state #  88: atom  18 (Cs ), wfc  3 (l=1 m= 1)
     state #  89: atom  18 (Cs ), wfc  3 (l=1 m= 2)
     state #  90: atom  18 (Cs ), wfc  3 (l=1 m= 3)
     state #  91: atom  19 (Cs ), wfc  1 (l=0 m= 1)
     state #  92: atom  19 (Cs ), wfc  2 (l=0 m= 1)
     state #  93: atom  19 (Cs ), wfc  3 (l=1 m= 1)
     state #  94: atom  19 (Cs ), wfc  3 (l=1 m= 2)
     state #  95: atom  19 (Cs ), wfc  3 (l=1 m= 3)
     state #  96: atom  20 (Cs ), wfc  1 (l=0 m= 1)
     state #  97: atom  20 (Cs ), wfc  2 (l=0 m= 1)
     state #  98: atom  20 (Cs ), wfc  3 (l=1 m= 1)
     state #  99: atom  20 (Cs ), wfc  3 (l=1 m= 2)
     state # 100: atom  20 (Cs ), wfc  3 (l=1 m= 3)
     state # 101: atom  21 (Cs ), wfc  1 (l=0 m= 1)
     state # 102: atom  21 (Cs ), wfc  2 (l=0 m= 1)
     state # 103: atom  21 (Cs ), wfc  3 (l=1 m= 1)
     state # 104: atom  21 (Cs ), wfc  3 (l=1 m= 2)
     state # 105: atom  21 (Cs ), wfc  3 (l=1 m= 3)
     state # 106: atom  22 (Cs ), wfc  1 (l=0 m= 1)
     state # 107: atom  22 (Cs ), wfc  2 (l=0 m= 1)
     state # 108: atom  22 (Cs ), wfc  3 (l=1 m= 1)
     state # 109: atom  22 (Cs ), wfc  3 (l=1 m= 2)
     state # 110: atom  22 (Cs ), wfc  3 (l=1 m= 3)
     state # 111: atom  23 (Cs ), wfc  1 (l=0 m= 1)
     state # 112: atom  23 (Cs ), wfc  2 (l=0 m= 1)
     state # 113: atom  23 (Cs ), wfc  3 (l=1 m= 1)
     state # 114: atom  23 (Cs ), wfc  3 (l=1 m= 2)
     state # 115: atom  23 (Cs ), wfc  3 (l=1 m= 3)
     state # 116: atom  24 (Cs ), wfc  1 (l=0 m= 1)
     state # 117: atom  24 (Cs ), wfc  2 (l=0 m= 1)
     state # 118: atom  24 (Cs ), wfc  3 (l=1 m= 1)
     state # 119: atom  24 (Cs ), wfc  3 (l=1 m= 2)
     state # 120: atom  24 (Cs ), wfc  3 (l=1 m= 3)
     state # 121: atom  25 (Sn ), wfc  1 (l=0 m= 1)
     state # 122: atom  25 (Sn ), wfc  2 (l=1 m= 1)
     state # 123: atom  25 (Sn ), wfc  2 (l=1 m= 2)
     state # 124: atom  25 (Sn ), wfc  2 (l=1 m= 3)
     state # 125: atom  25 (Sn ), wfc  3 (l=2 m= 1)
     state # 126: atom  25 (Sn ), wfc  3 (l=2 m= 2)
     state # 127: atom  25 (Sn ), wfc  3 (l=2 m= 3)
     state # 128: atom  25 (Sn ), wfc  3 (l=2 m= 4)
     state # 129: atom  25 (Sn ), wfc  3 (l=2 m= 5)
     state # 130: atom  26 (Sn ), wfc  1 (l=0 m= 1)
     state # 131: atom  26 (Sn ), wfc  2 (l=1 m= 1)
     state # 132: atom  26 (Sn ), wfc  2 (l=1 m= 2)
     state # 133: atom  26 (Sn ), wfc  2 (l=1 m= 3)
     state # 134: atom  26 (Sn ), wfc  3 (l=2 m= 1)
     state # 135: atom  26 (Sn ), wfc  3 (l=2 m= 2)
     state # 136: atom  26 (Sn ), wfc  3 (l=2 m= 3)
     state # 137: atom  26 (Sn ), wfc  3 (l=2 m= 4)
     state # 138: atom  26 (Sn ), wfc  3 (l=2 m= 5)
     state # 139: atom  27 (Sn ), wfc  1 (l=0 m= 1)
     state # 140: atom  27 (Sn ), wfc  2 (l=1 m= 1)
     state # 141: atom  27 (Sn ), wfc  2 (l=1 m= 2)
     state # 142: atom  27 (Sn ), wfc  2 (l=1 m= 3)
     state # 143: atom  27 (Sn ), wfc  3 (l=2 m= 1)
     state # 144: atom  27 (Sn ), wfc  3 (l=2 m= 2)
     state # 145: atom  27 (Sn ), wfc  3 (l=2 m= 3)
     state # 146: atom  27 (Sn ), wfc  3 (l=2 m= 4)
     state # 147: atom  27 (Sn ), wfc  3 (l=2 m= 5)
     state # 148: atom  28 (Sn ), wfc  1 (l=0 m= 1)
     state # 149: atom  28 (Sn ), wfc  2 (l=1 m= 1)
     state # 150: atom  28 (Sn ), wfc  2 (l=1 m= 2)
     state # 151: atom  28 (Sn ), wfc  2 (l=1 m= 3)
     state # 152: atom  28 (Sn ), wfc  3 (l=2 m= 1)
     state # 153: atom  28 (Sn ), wfc  3 (l=2 m= 2)
     state # 154: atom  28 (Sn ), wfc  3 (l=2 m= 3)
     state # 155: atom  28 (Sn ), wfc  3 (l=2 m= 4)
     state # 156: atom  28 (Sn ), wfc  3 (l=2 m= 5)
     state # 157: atom  29 (Sn ), wfc  1 (l=0 m= 1)
     state # 158: atom  29 (Sn ), wfc  2 (l=1 m= 1)
     state # 159: atom  29 (Sn ), wfc  2 (l=1 m= 2)
     state # 160: atom  29 (Sn ), wfc  2 (l=1 m= 3)
     state # 161: atom  29 (Sn ), wfc  3 (l=2 m= 1)
     state # 162: atom  29 (Sn ), wfc  3 (l=2 m= 2)
     state # 163: atom  29 (Sn ), wfc  3 (l=2 m= 3)
     state # 164: atom  29 (Sn ), wfc  3 (l=2 m= 4)
     state # 165: atom  29 (Sn ), wfc  3 (l=2 m= 5)
     state # 166: atom  30 (Sn ), wfc  1 (l=0 m= 1)
     state # 167: atom  30 (Sn ), wfc  2 (l=1 m= 1)
     state # 168: atom  30 (Sn ), wfc  2 (l=1 m= 2)
     state # 169: atom  30 (Sn ), wfc  2 (l=1 m= 3)
     state # 170: atom  30 (Sn ), wfc  3 (l=2 m= 1)
     state # 171: atom  30 (Sn ), wfc  3 (l=2 m= 2)
     state # 172: atom  30 (Sn ), wfc  3 (l=2 m= 3)
     state # 173: atom  30 (Sn ), wfc  3 (l=2 m= 4)
     state # 174: atom  30 (Sn ), wfc  3 (l=2 m= 5)
     state # 175: atom  31 (Br ), wfc  1 (l=0 m= 1)
     state # 176: atom  31 (Br ), wfc  2 (l=1 m= 1)
     state # 177: atom  31 (Br ), wfc  2 (l=1 m= 2)
     state # 178: atom  31 (Br ), wfc  2 (l=1 m= 3)
     state # 179: atom  32 (Br ), wfc  1 (l=0 m= 1)
     state # 180: atom  32 (Br ), wfc  2 (l=1 m= 1)
     state # 181: atom  32 (Br ), wfc  2 (l=1 m= 2)
     state # 182: atom  32 (Br ), wfc  2 (l=1 m= 3)
     state # 183: atom  33 (Br ), wfc  1 (l=0 m= 1)
     state # 184: atom  33 (Br ), wfc  2 (l=1 m= 1)
     state # 185: atom  33 (Br ), wfc  2 (l=1 m= 2)
     state # 186: atom  33 (Br ), wfc  2 (l=1 m= 3)
     state # 187: atom  34 (Br ), wfc  1 (l=0 m= 1)
     state # 188: atom  34 (Br ), wfc  2 (l=1 m= 1)
     state # 189: atom  34 (Br ), wfc  2 (l=1 m= 2)
     state # 190: atom  34 (Br ), wfc  2 (l=1 m= 3)
     state # 191: atom  35 (Br ), wfc  1 (l=0 m= 1)
     state # 192: atom  35 (Br ), wfc  2 (l=1 m= 1)
     state # 193: atom  35 (Br ), wfc  2 (l=1 m= 2)
     state # 194: atom  35 (Br ), wfc  2 (l=1 m= 3)
     state # 195: atom  36 (Br ), wfc  1 (l=0 m= 1)
     state # 196: atom  36 (Br ), wfc  2 (l=1 m= 1)
     state # 197: atom  36 (Br ), wfc  2 (l=1 m= 2)
     state # 198: atom  36 (Br ), wfc  2 (l=1 m= 3)
     state # 199: atom  37 (Br ), wfc  1 (l=0 m= 1)
     state # 200: atom  37 (Br ), wfc  2 (l=1 m= 1)
     state # 201: atom  37 (Br ), wfc  2 (l=1 m= 2)
     state # 202: atom  37 (Br ), wfc  2 (l=1 m= 3)
     state # 203: atom  38 (Br ), wfc  1 (l=0 m= 1)
     state # 204: atom  38 (Br ), wfc  2 (l=1 m= 1)
     state # 205: atom  38 (Br ), wfc  2 (l=1 m= 2)
     state # 206: atom  38 (Br ), wfc  2 (l=1 m= 3)
     state # 207: atom  39 (Br ), wfc  1 (l=0 m= 1)
     state # 208: atom  39 (Br ), wfc  2 (l=1 m= 1)
     state # 209: atom  39 (Br ), wfc  2 (l=1 m= 2)
     state # 210: atom  39 (Br ), wfc  2 (l=1 m= 3)
     state # 211: atom  40 (Br ), wfc  1 (l=0 m= 1)
     state # 212: atom  40 (Br ), wfc  2 (l=1 m= 1)
     state # 213: atom  40 (Br ), wfc  2 (l=1 m= 2)
     state # 214: atom  40 (Br ), wfc  2 (l=1 m= 3)
     state # 215: atom  41 (Br ), wfc  1 (l=0 m= 1)
     state # 216: atom  41 (Br ), wfc  2 (l=1 m= 1)
     state # 217: atom  41 (Br ), wfc  2 (l=1 m= 2)
     state # 218: atom  41 (Br ), wfc  2 (l=1 m= 3)
     state # 219: atom  42 (Br ), wfc  1 (l=0 m= 1)
     state # 220: atom  42 (Br ), wfc  2 (l=1 m= 1)
     state # 221: atom  42 (Br ), wfc  2 (l=1 m= 2)
     state # 222: atom  42 (Br ), wfc  2 (l=1 m= 3)
     state # 223: atom  43 (Br ), wfc  1 (l=0 m= 1)
     state # 224: atom  43 (Br ), wfc  2 (l=1 m= 1)
     state # 225: atom  43 (Br ), wfc  2 (l=1 m= 2)
     state # 226: atom  43 (Br ), wfc  2 (l=1 m= 3)
     state # 227: atom  44 (Br ), wfc  1 (l=0 m= 1)
     state # 228: atom  44 (Br ), wfc  2 (l=1 m= 1)
     state # 229: atom  44 (Br ), wfc  2 (l=1 m= 2)
     state # 230: atom  44 (Br ), wfc  2 (l=1 m= 3)
     state # 231: atom  45 (Br ), wfc  1 (l=0 m= 1)
     state # 232: atom  45 (Br ), wfc  2 (l=1 m= 1)
     state # 233: atom  45 (Br ), wfc  2 (l=1 m= 2)
     state # 234: atom  45 (Br ), wfc  2 (l=1 m= 3)
     state # 235: atom  46 (Br ), wfc  1 (l=0 m= 1)
     state # 236: atom  46 (Br ), wfc  2 (l=1 m= 1)
     state # 237: atom  46 (Br ), wfc  2 (l=1 m= 2)
     state # 238: atom  46 (Br ), wfc  2 (l=1 m= 3)
     state # 239: atom  47 (Br ), wfc  1 (l=0 m= 1)
     state # 240: atom  47 (Br ), wfc  2 (l=1 m= 1)
     state # 241: atom  47 (Br ), wfc  2 (l=1 m= 2)
     state # 242: atom  47 (Br ), wfc  2 (l=1 m= 3)
     state # 243: atom  48 (Br ), wfc  1 (l=0 m= 1)
     state # 244: atom  48 (Br ), wfc  2 (l=1 m= 1)
     state # 245: atom  48 (Br ), wfc  2 (l=1 m= 2)
     state # 246: atom  48 (Br ), wfc  2 (l=1 m= 3)
     state # 247: atom  49 (Br ), wfc  1 (l=0 m= 1)
     state # 248: atom  49 (Br ), wfc  2 (l=1 m= 1)
     state # 249: atom  49 (Br ), wfc  2 (l=1 m= 2)
     state # 250: atom  49 (Br ), wfc  2 (l=1 m= 3)
     state # 251: atom  50 (Br ), wfc  1 (l=0 m= 1)
     state # 252: atom  50 (Br ), wfc  2 (l=1 m= 1)
     state # 253: atom  50 (Br ), wfc  2 (l=1 m= 2)
     state # 254: atom  50 (Br ), wfc  2 (l=1 m= 3)
     state # 255: atom  51 (Br ), wfc  1 (l=0 m= 1)
     state # 256: atom  51 (Br ), wfc  2 (l=1 m= 1)
     state # 257: atom  51 (Br ), wfc  2 (l=1 m= 2)
     state # 258: atom  51 (Br ), wfc  2 (l=1 m= 3)
     state # 259: atom  52 (Br ), wfc  1 (l=0 m= 1)
     state # 260: atom  52 (Br ), wfc  2 (l=1 m= 1)
     state # 261: atom  52 (Br ), wfc  2 (l=1 m= 2)
     state # 262: atom  52 (Br ), wfc  2 (l=1 m= 3)
     state # 263: atom  53 (Br ), wfc  1 (l=0 m= 1)
     state # 264: atom  53 (Br ), wfc  2 (l=1 m= 1)
     state # 265: atom  53 (Br ), wfc  2 (l=1 m= 2)
     state # 266: atom  53 (Br ), wfc  2 (l=1 m= 3)
     state # 267: atom  54 (Br ), wfc  1 (l=0 m= 1)
     state # 268: atom  54 (Br ), wfc  2 (l=1 m= 1)
     state # 269: atom  54 (Br ), wfc  2 (l=1 m= 2)
     state # 270: atom  54 (Br ), wfc  2 (l=1 m= 3)
     state # 271: atom  55 (Br ), wfc  1 (l=0 m= 1)
     state # 272: atom  55 (Br ), wfc  2 (l=1 m= 1)
     state # 273: atom  55 (Br ), wfc  2 (l=1 m= 2)
     state # 274: atom  55 (Br ), wfc  2 (l=1 m= 3)
     state # 275: atom  56 (Br ), wfc  1 (l=0 m= 1)
     state # 276: atom  56 (Br ), wfc  2 (l=1 m= 1)
     state # 277: atom  56 (Br ), wfc  2 (l=1 m= 2)
     state # 278: atom  56 (Br ), wfc  2 (l=1 m= 3)
     state # 279: atom  57 (Br ), wfc  1 (l=0 m= 1)
     state # 280: atom  57 (Br ), wfc  2 (l=1 m= 1)
     state # 281: atom  57 (Br ), wfc  2 (l=1 m= 2)
     state # 282: atom  57 (Br ), wfc  2 (l=1 m= 3)
     state # 283: atom  58 (Br ), wfc  1 (l=0 m= 1)
     state # 284: atom  58 (Br ), wfc  2 (l=1 m= 1)
     state # 285: atom  58 (Br ), wfc  2 (l=1 m= 2)
     state # 286: atom  58 (Br ), wfc  2 (l=1 m= 3)
     state # 287: atom  59 (Br ), wfc  1 (l=0 m= 1)
     state # 288: atom  59 (Br ), wfc  2 (l=1 m= 1)
     state # 289: atom  59 (Br ), wfc  2 (l=1 m= 2)
     state # 290: atom  59 (Br ), wfc  2 (l=1 m= 3)
     state # 291: atom  60 (Br ), wfc  1 (l=0 m= 1)
     state # 292: atom  60 (Br ), wfc  2 (l=1 m= 1)
     state # 293: atom  60 (Br ), wfc  2 (l=1 m= 2)
     state # 294: atom  60 (Br ), wfc  2 (l=1 m= 3)
     state # 295: atom  61 (Br ), wfc  1 (l=0 m= 1)
     state # 296: atom  61 (Br ), wfc  2 (l=1 m= 1)
     state # 297: atom  61 (Br ), wfc  2 (l=1 m= 2)
     state # 298: atom  61 (Br ), wfc  2 (l=1 m= 3)
     state # 299: atom  62 (Br ), wfc  1 (l=0 m= 1)
     state # 300: atom  62 (Br ), wfc  2 (l=1 m= 1)
     state # 301: atom  62 (Br ), wfc  2 (l=1 m= 2)
     state # 302: atom  62 (Br ), wfc  2 (l=1 m= 3)
     state # 303: atom  63 (Br ), wfc  1 (l=0 m= 1)
     state # 304: atom  63 (Br ), wfc  2 (l=1 m= 1)
     state # 305: atom  63 (Br ), wfc  2 (l=1 m= 2)
     state # 306: atom  63 (Br ), wfc  2 (l=1 m= 3)
     state # 307: atom  64 (Br ), wfc  1 (l=0 m= 1)
     state # 308: atom  64 (Br ), wfc  2 (l=1 m= 1)
     state # 309: atom  64 (Br ), wfc  2 (l=1 m= 2)
     state # 310: atom  64 (Br ), wfc  2 (l=1 m= 3)
     state # 311: atom  65 (Br ), wfc  1 (l=0 m= 1)
     state # 312: atom  65 (Br ), wfc  2 (l=1 m= 1)
     state # 313: atom  65 (Br ), wfc  2 (l=1 m= 2)
     state # 314: atom  65 (Br ), wfc  2 (l=1 m= 3)
     state # 315: atom  66 (Br ), wfc  1 (l=0 m= 1)
     state # 316: atom  66 (Br ), wfc  2 (l=1 m= 1)
     state # 317: atom  66 (Br ), wfc  2 (l=1 m= 2)
     state # 318: atom  66 (Br ), wfc  2 (l=1 m= 3)

 k =   0.0000000000  0.0000000000  0.0000000000
==== e(   1) =   -17.42496 eV ==== 
     psi = 0.150*[# 144]+0.150*[# 145]+0.150*[# 162]+0.150*[# 163]+0.099*[# 146]
          +0.099*[# 147]+0.099*[# 164]+0.099*[# 165]
    |psi|^2 = 1.000
==== e(   2) =   -17.42496 eV ==== 
     psi = 0.150*[# 144]+0.150*[# 145]+0.150*[# 162]+0.150*[# 163]+0.099*[# 146]
          +0.099*[# 147]+0.099*[# 164]+0.099*[# 165]
    |psi|^2 = 1.000
==== e(   3) =   -17.42495 eV ==== 
     psi = 0.150*[# 144]+0.150*[# 145]+0.150*[# 162]+0.150*[# 163]+0.100*[# 146]
          +0.100*[# 147]+0.100*[# 164]+0.100*[# 165]
    |psi|^2 = 1.000
==== e(   4) =   -17.42495 eV ==== 
     psi = 0.150*[# 144]+0.150*[# 145]+0.150*[# 162]+0.150*[# 163]+0.100*[# 146]
          +0.100*[# 147]+0.100*[# 164]+0.100*[# 165]
    |psi|^2 = 1.000
==== e(   5) =   -17.42434 eV ==== 
     psi = 0.297*[# 135]+0.297*[# 136]+0.197*[# 137]+0.197*[# 138]
    |psi|^2 = 1.000
==== e(   6) =   -17.42434 eV ==== 
     psi = 0.297*[# 135]+0.297*[# 136]+0.197*[# 137]+0.197*[# 138]+0.001*[# 153]
          +0.001*[# 154]+0.001*[# 171]+0.001*[# 172]
    |psi|^2 = 1.000
==== e(   7) =   -17.42432 eV ==== 
     psi = 0.149*[# 153]+0.149*[# 154]+0.149*[# 171]+0.149*[# 172]+0.098*[# 155]
          +0.098*[# 156]+0.098*[# 173]+0.098*[# 174]+0.002*[# 135]+0.002*[# 136]
          +0.001*[# 137]+0.001*[# 138]
    |psi|^2 = 1.000
==== e(   8) =   -17.42432 eV ==== 
     psi = 0.149*[# 153]+0.149*[# 154]+0.149*[# 171]+0.149*[# 172]+0.098*[# 155]
          +0.098*[# 156]+0.098*[# 173]+0.098*[# 174]+0.002*[# 135]+0.002*[# 136]
          +0.001*[# 137]+0.001*[# 138]
    |psi|^2 = 1.000
==== e(   9) =   -17.42432 eV ==== 
     psi = 0.149*[# 153]+0.149*[# 154]+0.149*[# 171]+0.149*[# 172]+0.099*[# 155]
          +0.099*[# 156]+0.099*[# 173]+0.099*[# 174]
    |psi|^2 = 1.000
==== e(  10) =   -17.42432 eV ==== 
     psi = 0.149*[# 153]+0.149*[# 154]+0.149*[# 171]+0.149*[# 172]+0.099*[# 155]
          +0.099*[# 156]+0.099*[# 173]+0.099*[# 174]
    |psi|^2 = 1.000
==== e(  11) =   -17.42389 eV ==== 
     psi = 0.299*[# 126]+0.299*[# 127]+0.197*[# 128]+0.197*[# 129]
    |psi|^2 = 1.000
==== e(  12) =   -17.42389 eV ==== 
     psi = 0.299*[# 126]+0.299*[# 127]+0.197*[# 128]+0.197*[# 129]
    |psi|^2 = 1.000
==== e(  13) =   -17.41956 eV ==== 
     psi = 0.424*[# 143]+0.424*[# 161]+0.073*[# 152]+0.073*[# 170]+0.001*[# 101]
          +0.001*[# 106]+0.001*[# 111]+0.001*[# 116]
    |psi|^2 = 1.000
==== e(  14) =   -17.41952 eV ==== 
     psi = 0.429*[# 143]+0.429*[# 161]+0.068*[# 152]+0.068*[# 170]+0.002*[# 134]
          +0.001*[# 101]+0.001*[# 106]+0.001*[# 111]+0.001*[# 116]
    |psi|^2 = 1.000
==== e(  15) =   -17.41895 eV ==== 
     psi = 0.783*[# 134]+0.208*[# 125]+0.002*[#  91]+0.002*[#  96]+0.002*[# 143]
          +0.002*[# 161]
    |psi|^2 = 1.000
==== e(  16) =   -17.41870 eV ==== 
     psi = 0.146*[# 146]+0.146*[# 147]+0.146*[# 164]+0.146*[# 165]+0.098*[# 144]
          +0.098*[# 145]+0.098*[# 162]+0.098*[# 163]+0.003*[# 155]+0.003*[# 156]
          +0.003*[# 173]+0.003*[# 174]+0.002*[# 153]+0.002*[# 154]+0.002*[# 171]
          +0.002*[# 172]
    |psi|^2 = 1.000
==== e(  17) =   -17.41870 eV ==== 
     psi = 0.146*[# 146]+0.146*[# 147]+0.146*[# 164]+0.146*[# 165]+0.098*[# 144]
          +0.098*[# 145]+0.098*[# 162]+0.098*[# 163]+0.003*[# 155]+0.003*[# 156]
          +0.003*[# 173]+0.003*[# 174]+0.002*[# 153]+0.002*[# 154]+0.002*[# 171]
          +0.002*[# 172]
    |psi|^2 = 1.000
==== e(  18) =   -17.41869 eV ==== 
     psi = 0.144*[# 146]+0.144*[# 147]+0.144*[# 164]+0.144*[# 165]+0.094*[# 144]
          +0.094*[# 145]+0.094*[# 162]+0.094*[# 163]+0.010*[# 137]+0.010*[# 138]
          +0.007*[# 135]+0.007*[# 136]+0.002*[# 155]+0.002*[# 156]+0.002*[# 173]
          +0.002*[# 174]+0.001*[# 153]+0.001*[# 154]+0.001*[# 171]+0.001*[# 172]
          
    |psi|^2 = 1.000
==== e(  19) =   -17.41869 eV ==== 
     psi = 0.144*[# 146]+0.144*[# 147]+0.144*[# 164]+0.144*[# 165]+0.094*[# 144]
          +0.094*[# 145]+0.094*[# 162]+0.094*[# 163]+0.010*[# 137]+0.010*[# 138]
          +0.007*[# 135]+0.007*[# 136]+0.002*[# 155]+0.002*[# 156]+0.002*[# 173]
          +0.002*[# 174]+0.001*[# 153]+0.001*[# 154]+0.001*[# 171]+0.001*[# 172]
          
    |psi|^2 = 1.000
==== e(  20) =   -17.41866 eV ==== 
     psi = 0.425*[# 152]+0.425*[# 170]+0.074*[# 143]+0.074*[# 161]
    |psi|^2 = 1.000
==== e(  21) =   -17.41865 eV ==== 
     psi = 0.431*[# 152]+0.431*[# 170]+0.068*[# 143]+0.068*[# 161]+0.001*[# 134]
          
    |psi|^2 = 1.000
==== e(  22) =   -17.41819 eV ==== 
     psi = 0.788*[# 125]+0.211*[# 134]
    |psi|^2 = 1.000
==== e(  23) =   -17.41808 eV ==== 
     psi = 0.128*[# 137]+0.128*[# 138]+0.087*[# 135]+0.087*[# 136]+0.079*[# 155]
          +0.079*[# 156]+0.079*[# 173]+0.079*[# 174]+0.052*[# 153]+0.052*[# 154]
          +0.052*[# 171]+0.052*[# 172]+0.013*[# 128]+0.013*[# 129]+0.009*[# 126]
          +0.009*[# 127]
    |psi|^2 = 1.000
==== e(  24) =   -17.41808 eV ==== 
     psi = 0.128*[# 137]+0.128*[# 138]+0.087*[# 135]+0.087*[# 136]+0.079*[# 155]
          +0.079*[# 156]+0.079*[# 173]+0.079*[# 174]+0.052*[# 153]+0.052*[# 154]
          +0.052*[# 171]+0.052*[# 172]+0.013*[# 128]+0.013*[# 129]+0.009*[# 126]
          +0.009*[# 127]
    |psi|^2 = 1.000
==== e(  25) =   -17.41803 eV ==== 
     psi = 0.146*[# 155]+0.146*[# 156]+0.146*[# 173]+0.146*[# 174]+0.098*[# 153]
          +0.098*[# 154]+0.098*[# 171]+0.098*[# 172]+0.003*[# 146]+0.003*[# 147]
          +0.003*[# 164]+0.003*[# 165]+0.002*[# 144]+0.002*[# 145]+0.002*[# 162]
          +0.002*[# 163]
    |psi|^2 = 1.000
==== e(  26) =   -17.41803 eV ==== 
     psi = 0.146*[# 155]+0.146*[# 156]+0.146*[# 173]+0.146*[# 174]+0.098*[# 153]
          +0.098*[# 154]+0.098*[# 171]+0.098*[# 172]+0.003*[# 146]+0.003*[# 147]
          +0.003*[# 164]+0.003*[# 165]+0.002*[# 144]+0.002*[# 145]+0.002*[# 162]
          +0.002*[# 163]
    |psi|^2 = 1.000
==== e(  27) =   -17.41800 eV ==== 
     psi = 0.160*[# 137]+0.160*[# 138]+0.105*[# 135]+0.105*[# 136]+0.059*[# 155]
          +0.059*[# 156]+0.059*[# 173]+0.059*[# 174]+0.038*[# 153]+0.038*[# 154]
          +0.038*[# 171]+0.038*[# 172]+0.010*[# 128]+0.010*[# 129]+0.007*[# 126]
          +0.007*[# 127]+0.007*[# 146]+0.007*[# 147]+0.007*[# 164]+0.007*[# 165]
          +0.005*[# 144]+0.005*[# 145]+0.005*[# 162]+0.005*[# 163]
    |psi|^2 = 1.000
==== e(  28) =   -17.41800 eV ==== 
     psi = 0.161*[# 137]+0.161*[# 138]+0.105*[# 135]+0.105*[# 136]+0.059*[# 155]
          +0.059*[# 156]+0.059*[# 173]+0.059*[# 174]+0.038*[# 153]+0.038*[# 154]
          +0.038*[# 171]+0.038*[# 172]+0.010*[# 128]+0.010*[# 129]+0.007*[# 126]
          +0.007*[# 127]+0.007*[# 146]+0.007*[# 147]+0.007*[# 164]+0.007*[# 165]
          +0.005*[# 144]+0.005*[# 145]+0.005*[# 162]+0.005*[# 163]
    |psi|^2 = 1.000
==== e(  29) =   -17.41757 eV ==== 
     psi = 0.277*[# 128]+0.277*[# 129]+0.183*[# 126]+0.183*[# 127]+0.011*[# 155]
          +0.011*[# 156]+0.011*[# 173]+0.011*[# 174]+0.007*[# 153]+0.007*[# 154]
          +0.007*[# 171]+0.007*[# 172]
    |psi|^2 = 1.000
==== e(  30) =   -17.41757 eV ==== 
     psi = 0.277*[# 128]+0.277*[# 129]+0.183*[# 126]+0.183*[# 127]+0.011*[# 155]
          +0.011*[# 156]+0.011*[# 173]+0.011*[# 174]+0.007*[# 153]+0.007*[# 154]
          +0.007*[# 171]+0.007*[# 172]
    |psi|^2 = 1.000
==== e(  31) =   -17.26125 eV ==== 
     psi = 0.360*[# 101]+0.360*[# 116]+0.096*[#  91]+0.096*[#  96]+0.020*[# 106]
          +0.020*[# 111]+0.002*[#  31]+0.002*[#  41]+0.002*[#  51]+0.002*[#  66]
          +0.002*[#  76]+0.002*[#  86]+0.001*[#  32]+0.001*[#  42]+0.001*[#  52]
          +0.001*[#  67]+0.001*[#  77]+0.001*[#  87]+0.001*[#   1]+0.001*[#   6]
          +0.001*[#  11]+0.001*[#  16]+0.001*[#  21]+0.001*[#  26]
    |psi|^2 = 1.000
==== e(  32) =   -17.26068 eV ==== 
     psi = 0.221*[#  91]+0.221*[#  96]+0.193*[# 101]+0.193*[# 116]+0.074*[# 106]
          +0.074*[# 111]
    |psi|^2 = 1.000
==== e(  33) =   -17.26060 eV ==== 
     psi = 0.351*[# 106]+0.351*[# 111]+0.075*[# 101]+0.075*[# 116]+0.058*[#  91]
          +0.058*[#  96]+0.002*[#  36]+0.002*[#  46]+0.002*[#  56]+0.002*[#  61]
          +0.002*[#  71]+0.002*[#  81]+0.001*[#  37]+0.001*[#  47]+0.001*[#  57]
          +0.001*[#  62]+0.001*[#  72]+0.001*[#  82]
    |psi|^2 = 1.000
==== e(  34) =   -17.26020 eV ==== 
     psi = 0.268*[#  91]+0.268*[#  96]+0.185*[# 101]+0.185*[# 116]+0.041*[# 106]
          +0.041*[# 111]+0.001*[# 122]+0.001*[# 131]
    |psi|^2 = 1.000
==== e(  35) =   -17.25921 eV ==== 
     psi = 0.376*[# 106]+0.376*[# 111]+0.115*[# 101]+0.115*[# 116]+0.003*[#  91]
          +0.003*[#  96]+0.001*[# 143]+0.001*[# 152]+0.001*[# 161]+0.001*[# 170]
          
    |psi|^2 = 1.000
==== e(  36) =   -17.25919 eV ==== 
     psi = 0.331*[#  91]+0.331*[#  96]+0.115*[# 106]+0.115*[# 111]+0.049*[# 101]
          +0.049*[# 116]+0.002*[# 125]+0.002*[# 134]
    |psi|^2 = 1.000
==== e(  37) =   -17.19917 eV ==== 
     psi = 0.058*[#  31]+0.058*[#  41]+0.058*[#  51]+0.058*[#  66]+0.058*[#  76]
          +0.058*[#  86]+0.053*[#   1]+0.053*[#   6]+0.053*[#  11]+0.053*[#  16]
          +0.053*[#  21]+0.053*[#  26]+0.048*[#  36]+0.048*[#  46]+0.048*[#  56]
          +0.048*[#  61]+0.048*[#  71]+0.048*[#  81]+0.005*[# 101]+0.005*[# 116]
          +0.005*[#  91]+0.005*[#  96]+0.005*[# 106]+0.005*[# 111]+0.003*[# 102]
          +0.003*[# 117]+0.003*[#  92]+0.003*[#  97]+0.002*[# 107]+0.002*[# 112]
          
    |psi|^2 = 1.000
==== e(  38) =   -17.19475 eV ==== 
     psi = 0.109*[#   1]+0.109*[#   6]+0.109*[#  11]+0.109*[#  16]+0.109*[#  21]
          +0.109*[#  26]+0.029*[#  31]+0.029*[#  41]+0.029*[#  51]+0.029*[#  66]
          +0.029*[#  76]+0.029*[#  86]+0.026*[#  36]+0.026*[#  46]+0.026*[#  56]
          +0.026*[#  61]+0.026*[#  71]+0.026*[#  81]+0.003*[#  91]+0.003*[#  96]
          +0.002*[#  92]+0.002*[#  97]
    |psi|^2 = 1.000
==== e(  39) =   -17.19471 eV ==== 
     psi = 0.085*[#  36]+0.085*[#  46]+0.085*[#  56]+0.085*[#  61]+0.085*[#  71]
          +0.085*[#  81]+0.078*[#  31]+0.078*[#  41]+0.078*[#  51]+0.078*[#  66]
          +0.078*[#  76]+0.078*[#  86]+0.002*[# 106]+0.002*[# 111]+0.002*[# 101]
          +0.002*[# 107]+0.002*[# 112]+0.002*[# 116]+0.002*[# 102]+0.002*[# 117]
          
    |psi|^2 = 1.000
==== e(  40) =   -17.19337 eV ==== 
     psi = 0.101*[#  31]+0.101*[#  41]+0.101*[#  51]+0.101*[#  66]+0.101*[#  76]
          +0.101*[#  86]+0.049*[#   1]+0.049*[#   6]+0.049*[#  11]+0.049*[#  16]
          +0.049*[#  21]+0.049*[#  26]+0.015*[#  36]+0.015*[#  46]+0.015*[#  56]
          +0.015*[#  61]+0.015*[#  71]+0.015*[#  81]
    |psi|^2 = 1.000
==== e(  41) =   -17.19337 eV ==== 
     psi = 0.101*[#  31]+0.101*[#  41]+0.101*[#  51]+0.101*[#  66]+0.101*[#  76]
          +0.101*[#  86]+0.049*[#   1]+0.049*[#   6]+0.049*[#  11]+0.049*[#  16]
          +0.049*[#  21]+0.049*[#  26]+0.015*[#  36]+0.015*[#  46]+0.015*[#  56]
          +0.015*[#  61]+0.015*[#  71]+0.015*[#  81]
    |psi|^2 = 1.000
==== e(  42) =   -17.19298 eV ==== 
     psi = 0.103*[#   1]+0.103*[#   6]+0.103*[#  11]+0.103*[#  16]+0.103*[#  21]
          +0.103*[#  26]+0.035*[#  31]+0.035*[#  41]+0.035*[#  51]+0.035*[#  66]
          +0.035*[#  76]+0.035*[#  86]+0.027*[#  36]+0.027*[#  46]+0.027*[#  56]
          +0.027*[#  61]+0.027*[#  71]+0.027*[#  81]
    |psi|^2 = 1.000
==== e(  43) =   -17.19298 eV ==== 
     psi = 0.103*[#   1]+0.103*[#   6]+0.103*[#  11]+0.103*[#  16]+0.103*[#  21]
          +0.103*[#  26]+0.035*[#  31]+0.035*[#  41]+0.035*[#  51]+0.035*[#  66]
          +0.035*[#  76]+0.035*[#  86]+0.027*[#  36]+0.027*[#  46]+0.027*[#  56]
          +0.027*[#  61]+0.027*[#  71]+0.027*[#  81]
    |psi|^2 = 1.000
==== e(  44) =   -17.19289 eV ==== 
     psi = 0.114*[#  36]+0.114*[#  46]+0.114*[#  56]+0.114*[#  61]+0.114*[#  71]
          +0.114*[#  81]+0.036*[#  31]+0.036*[#  41]+0.036*[#  51]+0.036*[#  66]
          +0.036*[#  76]+0.036*[#  86]+0.015*[#   1]+0.015*[#   6]+0.015*[#  11]
          +0.015*[#  16]+0.015*[#  21]+0.015*[#  26]
    |psi|^2 = 1.000
==== e(  45) =   -17.19288 eV ==== 
     psi = 0.114*[#  36]+0.114*[#  46]+0.114*[#  56]+0.114*[#  61]+0.114*[#  71]
          +0.114*[#  81]+0.036*[#  31]+0.036*[#  41]+0.036*[#  51]+0.036*[#  66]
          +0.036*[#  76]+0.036*[#  86]+0.015*[#   1]+0.015*[#   6]+0.015*[#  11]
          +0.015*[#  16]+0.015*[#  21]+0.015*[#  26]
    |psi|^2 = 1.000
==== e(  46) =   -17.18973 eV ==== 
     psi = 0.101*[#   1]+0.101*[#   6]+0.101*[#  11]+0.101*[#  16]+0.101*[#  21]
          +0.101*[#  26]+0.036*[#  36]+0.036*[#  46]+0.036*[#  56]+0.036*[#  61]
          +0.036*[#  71]+0.036*[#  81]+0.028*[#  31]+0.028*[#  41]+0.028*[#  51]
          +0.028*[#  66]+0.028*[#  76]+0.028*[#  86]
    |psi|^2 = 1.000
==== e(  47) =   -17.18973 eV ==== 
     psi = 0.101*[#   1]+0.101*[#   6]+0.101*[#  11]+0.101*[#  16]+0.101*[#  21]
          +0.101*[#  26]+0.036*[#  36]+0.036*[#  46]+0.036*[#  56]+0.036*[#  61]
          +0.036*[#  71]+0.036*[#  81]+0.028*[#  31]+0.028*[#  41]+0.028*[#  51]
          +0.028*[#  66]+0.028*[#  76]+0.028*[#  86]
    |psi|^2 = 1.000
==== e(  48) =   -17.18971 eV ==== 
     psi = 0.086*[#  31]+0.086*[#  41]+0.086*[#  51]+0.086*[#  66]+0.086*[#  76]
          +0.086*[#  86]+0.071*[#  36]+0.071*[#  46]+0.071*[#  56]+0.071*[#  61]
          +0.071*[#  71]+0.071*[#  81]+0.008*[#   1]+0.008*[#   6]+0.008*[#  11]
          +0.008*[#  16]+0.008*[#  21]+0.008*[#  26]
    |psi|^2 = 1.000
==== e(  49) =   -17.18971 eV ==== 
     psi = 0.086*[#  31]+0.086*[#  41]+0.086*[#  51]+0.086*[#  66]+0.086*[#  76]
          +0.086*[#  86]+0.071*[#  36]+0.071*[#  46]+0.071*[#  56]+0.071*[#  61]
          +0.071*[#  71]+0.071*[#  81]+0.009*[#   1]+0.009*[#   6]+0.009*[#  11]
          +0.009*[#  16]+0.009*[#  21]+0.009*[#  26]
    |psi|^2 = 1.000
==== e(  50) =   -17.18770 eV ==== 
     psi = 0.067*[#  36]+0.067*[#  46]+0.067*[#  56]+0.067*[#  61]+0.067*[#  71]
          +0.067*[#  81]+0.054*[#   1]+0.054*[#   6]+0.054*[#  11]+0.054*[#  16]
          +0.054*[#  21]+0.054*[#  26]+0.045*[#  31]+0.045*[#  41]+0.045*[#  51]
          +0.045*[#  66]+0.045*[#  76]+0.045*[#  86]
    |psi|^2 = 1.000
==== e(  51) =   -17.18770 eV ==== 
     psi = 0.067*[#  36]+0.067*[#  46]+0.067*[#  56]+0.067*[#  61]+0.067*[#  71]
          +0.067*[#  81]+0.054*[#   1]+0.054*[#   6]+0.054*[#  11]+0.054*[#  16]
          +0.054*[#  21]+0.054*[#  26]+0.045*[#  31]+0.045*[#  41]+0.045*[#  51]
          +0.045*[#  66]+0.045*[#  76]+0.045*[#  86]
    |psi|^2 = 1.000
==== e(  52) =   -17.18718 eV ==== 
     psi = 0.110*[#   1]+0.110*[#   6]+0.110*[#  11]+0.110*[#  16]+0.110*[#  21]
          +0.110*[#  26]+0.029*[#  36]+0.029*[#  46]+0.029*[#  56]+0.029*[#  61]
          +0.029*[#  71]+0.029*[#  81]+0.026*[#  31]+0.026*[#  41]+0.026*[#  51]
          +0.026*[#  66]+0.026*[#  76]+0.026*[#  86]
    |psi|^2 = 1.000
==== e(  53) =   -17.18715 eV ==== 
     psi = 0.090*[#  31]+0.090*[#  41]+0.090*[#  51]+0.090*[#  66]+0.090*[#  76]
          +0.090*[#  86]+0.075*[#  36]+0.075*[#  46]+0.075*[#  56]+0.075*[#  61]
          +0.075*[#  71]+0.075*[#  81]
    |psi|^2 = 1.000
==== e(  54) =   -17.18464 eV ==== 
     psi = 0.064*[#  36]+0.064*[#  46]+0.064*[#  56]+0.064*[#  61]+0.064*[#  71]
          +0.064*[#  81]+0.054*[#   1]+0.054*[#   6]+0.054*[#  11]+0.054*[#  16]
          +0.054*[#  21]+0.054*[#  26]+0.046*[#  31]+0.046*[#  41]+0.046*[#  51]
          +0.046*[#  66]+0.046*[#  76]+0.046*[#  86]
    |psi|^2 = 1.000
==== e(  55) =   -10.52170 eV ==== 
     psi = 0.040*[# 175]+0.040*[# 179]+0.040*[# 183]+0.040*[# 187]+0.040*[# 191]
          +0.040*[# 195]+0.040*[# 199]+0.040*[# 203]+0.040*[# 207]+0.040*[# 211]
          +0.040*[# 215]+0.040*[# 219]+0.030*[# 223]+0.030*[# 231]+0.030*[# 239]
          +0.030*[# 275]+0.030*[# 283]+0.030*[# 291]+0.030*[# 251]+0.030*[# 259]
          +0.030*[# 267]+0.030*[# 295]+0.030*[# 303]+0.030*[# 311]+0.012*[#   2]
          +0.012*[#   7]+0.012*[#  12]+0.012*[#  17]+0.012*[#  22]+0.012*[#  27]
          +0.007*[# 139]+0.007*[# 157]+0.007*[# 148]+0.007*[# 166]+0.003*[#  32]
          +0.003*[#  37]+0.003*[#  42]+0.003*[#  47]+0.003*[#  52]+0.003*[#  57]
          +0.003*[#  62]+0.003*[#  67]+0.003*[#  72]+0.003*[#  77]+0.003*[#  82]
          +0.003*[#  87]+0.001*[# 103]+0.001*[# 108]+0.001*[# 113]+0.001*[# 118]
          
    |psi|^2 = 1.000
==== e(  56) =   -10.52163 eV ==== 
     psi = 0.047*[# 247]+0.047*[# 255]+0.047*[# 263]+0.047*[# 299]+0.047*[# 307]
          +0.047*[# 315]+0.045*[# 227]+0.045*[# 235]+0.045*[# 243]+0.045*[# 271]
          +0.045*[# 279]+0.045*[# 287]+0.018*[# 223]+0.018*[# 231]+0.018*[# 239]
          +0.018*[# 275]+0.018*[# 283]+0.018*[# 291]+0.017*[# 251]+0.017*[# 259]
          +0.017*[# 267]+0.017*[# 295]+0.017*[# 303]+0.017*[# 311]+0.009*[#  32]
          +0.009*[#  42]+0.009*[#  52]+0.009*[#  67]+0.009*[#  77]+0.009*[#  87]
          +0.009*[# 130]+0.009*[#  37]+0.009*[#  47]+0.009*[#  57]+0.009*[#  62]
          +0.009*[#  72]+0.009*[#  82]+0.009*[# 121]+0.007*[# 175]+0.007*[# 179]
          +0.007*[# 183]+0.007*[# 187]+0.007*[# 191]+0.007*[# 195]+0.007*[# 199]
          +0.007*[# 203]+0.007*[# 207]+0.007*[# 211]+0.007*[# 215]+0.007*[# 219]
          +0.002*[# 139]+0.002*[# 157]+0.002*[# 148]+0.002*[# 166]+0.001*[#  93]
          +0.001*[#  98]
    |psi|^2 = 1.000
==== e(  57) =   -10.50868 eV ==== 
     psi = 0.035*[# 227]+0.035*[# 235]+0.035*[# 243]+0.035*[# 271]+0.035*[# 279]
          +0.035*[# 287]+0.035*[# 175]+0.035*[# 179]+0.035*[# 183]+0.035*[# 187]
          +0.035*[# 191]+0.035*[# 195]+0.035*[# 223]+0.035*[# 231]+0.035*[# 239]
          +0.035*[# 275]+0.035*[# 283]+0.035*[# 291]+0.018*[# 247]+0.018*[# 255]
          +0.018*[# 263]+0.018*[# 299]+0.018*[# 307]+0.018*[# 315]+0.017*[# 199]
          +0.017*[# 203]+0.017*[# 207]+0.017*[# 211]+0.017*[# 215]+0.017*[# 219]
          +0.016*[# 251]+0.016*[# 259]+0.016*[# 267]+0.016*[# 295]+0.016*[# 303]
          +0.016*[# 311]+0.009*[# 121]+0.008*[# 139]+0.008*[# 157]+0.005*[# 130]
          +0.005*[# 148]+0.005*[# 166]
    |psi|^2 = 0.999
==== e(  58) =   -10.50850 eV ==== 
     psi = 0.032*[# 199]+0.032*[# 203]+0.032*[# 207]+0.032*[# 211]+0.032*[# 215]
          +0.032*[# 219]+0.032*[# 251]+0.032*[# 259]+0.032*[# 267]+0.032*[# 295]
          +0.032*[# 303]+0.032*[# 311]+0.030*[# 247]+0.030*[# 255]+0.030*[# 263]
          +0.030*[# 299]+0.030*[# 307]+0.030*[# 315]+0.014*[# 227]+0.014*[# 235]
          +0.014*[# 243]+0.014*[# 271]+0.014*[# 279]+0.014*[# 287]+0.013*[# 175]
          +0.013*[# 179]+0.013*[# 183]+0.013*[# 187]+0.013*[# 191]+0.013*[# 195]
          +0.013*[# 223]+0.013*[# 231]+0.013*[# 239]+0.013*[# 275]+0.013*[# 283]
          +0.013*[# 291]+0.007*[#  37]+0.007*[#  47]+0.007*[#  57]+0.007*[#  62]
          +0.007*[#  72]+0.007*[#  82]+0.007*[#   2]+0.007*[#   7]+0.007*[#  12]
          +0.007*[#  17]+0.007*[#  22]+0.007*[#  27]+0.007*[#  32]+0.007*[#  42]
          +0.007*[#  52]+0.007*[#  67]+0.007*[#  77]+0.007*[#  87]+0.006*[# 148]
          +0.006*[# 166]+0.006*[# 130]+0.005*[#  92]+0.005*[#  97]+0.005*[# 102]
          +0.005*[# 107]+0.005*[# 112]+0.005*[# 117]+0.002*[# 121]+0.002*[# 139]
          +0.002*[# 157]
    |psi|^2 = 1.000
==== e(  59) =   -10.48908 eV ==== 
     psi = 0.042*[# 251]+0.042*[# 259]+0.042*[# 267]+0.042*[# 295]+0.042*[# 303]
          +0.042*[# 311]+0.042*[# 223]+0.042*[# 231]+0.042*[# 239]+0.042*[# 275]
          +0.042*[# 283]+0.042*[# 291]+0.032*[# 199]+0.032*[# 203]+0.032*[# 207]
          +0.032*[# 211]+0.032*[# 215]+0.032*[# 219]+0.031*[# 175]+0.031*[# 179]
          +0.031*[# 183]+0.031*[# 187]+0.031*[# 191]+0.031*[# 195]+0.015*[# 102]
          +0.014*[# 107]+0.014*[# 112]+0.015*[# 117]+0.008*[# 148]+0.008*[# 166]
          +0.007*[# 139]+0.007*[# 157]
    |psi|^2 = 1.000
==== e(  60) =   -10.48896 eV ==== 
     psi = 0.050*[# 227]+0.050*[# 235]+0.050*[# 243]+0.050*[# 271]+0.050*[# 279]
          +0.050*[# 287]+0.048*[# 247]+0.048*[# 255]+0.048*[# 263]+0.048*[# 299]
          +0.048*[# 307]+0.048*[# 315]+0.019*[#  92]+0.019*[#  97]+0.018*[# 199]
          +0.018*[# 203]+0.018*[# 207]+0.018*[# 211]+0.018*[# 215]+0.018*[# 219]
          +0.017*[# 175]+0.017*[# 179]+0.017*[# 183]+0.017*[# 187]+0.017*[# 191]
          +0.017*[# 195]+0.010*[# 121]+0.010*[# 130]+0.008*[# 251]+0.008*[# 259]
          +0.008*[# 267]+0.008*[# 295]+0.008*[# 303]+0.008*[# 311]+0.008*[# 223]
          +0.008*[# 231]+0.008*[# 239]+0.008*[# 275]+0.008*[# 283]+0.008*[# 291]
          +0.005*[# 102]+0.005*[# 107]+0.005*[# 112]+0.005*[# 117]+0.002*[# 139]
          +0.003*[# 148]+0.002*[# 157]+0.003*[# 166]+0.001*[#   2]+0.001*[#   7]
          +0.001*[#  12]+0.001*[#  17]+0.001*[#  22]+0.001*[#  27]
    |psi|^2 = 1.000
==== e(  61) =   -10.37749 eV ==== 
     psi = 0.043*[# 223]+0.043*[# 231]+0.043*[# 239]+0.043*[# 251]+0.043*[# 259]
          +0.043*[# 267]+0.043*[# 275]+0.043*[# 283]+0.043*[# 291]+0.043*[# 295]
          +0.043*[# 303]+0.043*[# 311]+0.034*[# 175]+0.034*[# 179]+0.034*[# 183]
          +0.034*[# 187]+0.034*[# 191]+0.034*[# 195]+0.033*[# 199]+0.033*[# 203]
          +0.033*[# 207]+0.033*[# 211]+0.033*[# 215]+0.033*[# 219]+0.011*[# 140]
          +0.011*[# 158]+0.011*[# 149]+0.011*[# 167]+0.001*[#   2]+0.001*[#   7]
          +0.001*[#  12]+0.001*[#  17]+0.001*[#  22]+0.001*[#  27]+0.001*[#  92]
          +0.001*[#  97]+0.001*[# 103]+0.001*[# 108]+0.001*[# 113]+0.001*[# 118]
          
    |psi|^2 = 1.000
==== e(  62) =   -10.37738 eV ==== 
     psi = 0.051*[# 247]+0.051*[# 255]+0.051*[# 263]+0.051*[# 299]+0.051*[# 307]
          +0.051*[# 315]+0.051*[# 227]+0.051*[# 235]+0.051*[# 243]+0.051*[# 271]
          +0.051*[# 279]+0.051*[# 287]+0.019*[# 175]+0.019*[# 179]+0.019*[# 183]
          +0.019*[# 187]+0.019*[# 191]+0.019*[# 195]+0.018*[# 199]+0.018*[# 203]
          +0.018*[# 207]+0.018*[# 211]+0.018*[# 215]+0.018*[# 219]+0.015*[# 131]
          +0.015*[# 122]+0.008*[# 223]+0.008*[# 231]+0.008*[# 239]+0.008*[# 275]
          +0.008*[# 283]+0.008*[# 291]+0.008*[# 251]+0.008*[# 259]+0.008*[# 267]
          +0.008*[# 295]+0.008*[# 303]+0.008*[# 311]+0.004*[# 140]+0.004*[# 149]
          +0.004*[# 158]+0.004*[# 167]+0.001*[#  93]+0.001*[#  98]
    |psi|^2 = 1.000
==== e(  63) =   -10.37342 eV ==== 
     psi = 0.042*[# 175]+0.042*[# 179]+0.042*[# 183]+0.042*[# 187]+0.042*[# 191]
          +0.042*[# 195]+0.042*[# 199]+0.042*[# 203]+0.042*[# 207]+0.042*[# 211]
          +0.042*[# 215]+0.042*[# 219]+0.033*[# 223]+0.033*[# 231]+0.033*[# 239]
          +0.033*[# 275]+0.033*[# 283]+0.033*[# 291]+0.031*[# 251]+0.031*[# 259]
          +0.031*[# 267]+0.031*[# 295]+0.031*[# 303]+0.031*[# 311]+0.005*[# 141]
          +0.005*[# 142]+0.005*[# 159]+0.005*[# 160]+0.005*[# 150]+0.005*[# 151]
          +0.005*[# 168]+0.005*[# 169]+0.004*[#  32]+0.004*[#  37]+0.004*[#  42]
          +0.004*[#  47]+0.004*[#  52]+0.004*[#  57]+0.004*[#  62]+0.004*[#  67]
          +0.004*[#  72]+0.004*[#  77]+0.004*[#  82]+0.004*[#  87]+0.001*[#   2]
          +0.001*[#   7]+0.001*[#  12]+0.001*[#  17]+0.001*[#  22]+0.001*[#  27]
          
    |psi|^2 = 1.000
==== e(  64) =   -10.37342 eV ==== 
     psi = 0.042*[# 175]+0.042*[# 179]+0.042*[# 183]+0.042*[# 187]+0.042*[# 191]
          +0.042*[# 195]+0.042*[# 199]+0.042*[# 203]+0.042*[# 207]+0.042*[# 211]
          +0.042*[# 215]+0.042*[# 219]+0.033*[# 223]+0.033*[# 231]+0.033*[# 239]
          +0.033*[# 275]+0.033*[# 283]+0.033*[# 291]+0.031*[# 251]+0.031*[# 259]
          +0.031*[# 267]+0.031*[# 295]+0.031*[# 303]+0.031*[# 311]+0.005*[# 141]
          +0.005*[# 142]+0.005*[# 159]+0.005*[# 160]+0.005*[# 150]+0.005*[# 151]
          +0.005*[# 168]+0.005*[# 169]+0.004*[#  32]+0.004*[#  37]+0.004*[#  42]
          +0.004*[#  47]+0.004*[#  52]+0.004*[#  57]+0.004*[#  62]+0.004*[#  67]
          +0.004*[#  72]+0.004*[#  77]+0.004*[#  82]+0.004*[#  87]+0.001*[#   2]
          +0.001*[#   7]+0.001*[#  12]+0.001*[#  17]+0.001*[#  22]+0.001*[#  27]
          
    |psi|^2 = 1.000
==== e(  65) =   -10.37336 eV ==== 
     psi = 0.053*[# 247]+0.053*[# 255]+0.053*[# 263]+0.053*[# 299]+0.053*[# 307]
          +0.053*[# 315]+0.045*[# 227]+0.045*[# 235]+0.045*[# 243]+0.045*[# 271]
          +0.045*[# 279]+0.045*[# 287]+0.020*[# 223]+0.020*[# 231]+0.020*[# 239]
          +0.020*[# 275]+0.020*[# 283]+0.020*[# 291]+0.016*[# 251]+0.016*[# 259]
          +0.016*[# 267]+0.016*[# 295]+0.016*[# 303]+0.016*[# 311]+0.009*[# 175]
          +0.009*[# 179]+0.009*[# 183]+0.009*[# 187]+0.009*[# 191]+0.009*[# 195]
          +0.007*[# 132]+0.007*[# 133]+0.007*[# 199]+0.007*[# 203]+0.007*[# 207]
          +0.007*[# 211]+0.007*[# 215]+0.007*[# 219]+0.006*[# 123]+0.006*[# 124]
          +0.005*[#   2]+0.005*[#   7]+0.005*[#  12]+0.005*[#  17]+0.005*[#  22]
          +0.005*[#  27]+0.002*[#  32]+0.002*[#  42]+0.002*[#  52]+0.002*[#  67]
          +0.002*[#  77]+0.002*[#  87]+0.002*[#  37]+0.002*[#  47]+0.002*[#  57]
          +0.002*[#  62]+0.002*[#  72]+0.002*[#  82]+0.002*[# 141]+0.002*[# 142]
          +0.002*[# 159]+0.002*[# 160]+0.001*[# 150]+0.001*[# 151]+0.001*[# 168]
          +0.001*[# 169]
    |psi|^2 = 1.000
==== e(  66) =   -10.37336 eV ==== 
     psi = 0.053*[# 247]+0.053*[# 255]+0.053*[# 263]+0.053*[# 299]+0.053*[# 307]
          +0.053*[# 315]+0.045*[# 227]+0.045*[# 235]+0.045*[# 243]+0.045*[# 271]
          +0.045*[# 279]+0.045*[# 287]+0.020*[# 223]+0.020*[# 231]+0.020*[# 239]
          +0.020*[# 275]+0.020*[# 283]+0.020*[# 291]+0.016*[# 251]+0.016*[# 259]
          +0.016*[# 267]+0.016*[# 295]+0.016*[# 303]+0.016*[# 311]+0.009*[# 175]
          +0.009*[# 179]+0.009*[# 183]+0.009*[# 187]+0.009*[# 191]+0.009*[# 195]
          +0.007*[# 132]+0.007*[# 133]+0.007*[# 199]+0.007*[# 203]+0.007*[# 207]
          +0.007*[# 211]+0.007*[# 215]+0.007*[# 219]+0.006*[# 123]+0.006*[# 124]
          +0.005*[#   2]+0.005*[#   7]+0.005*[#  12]+0.005*[#  17]+0.005*[#  22]
          +0.005*[#  27]+0.002*[#  32]+0.002*[#  42]+0.002*[#  52]+0.002*[#  67]
          +0.002*[#  77]+0.002*[#  87]+0.002*[#  37]+0.002*[#  47]+0.002*[#  57]
          +0.002*[#  62]+0.002*[#  72]+0.002*[#  82]+0.002*[# 141]+0.002*[# 142]
          +0.002*[# 159]+0.002*[# 160]+0.001*[# 150]+0.001*[# 151]+0.001*[# 168]
          +0.001*[# 169]
    |psi|^2 = 1.000
==== e(  67) =   -10.37015 eV ==== 
     psi = 0.029*[# 227]+0.029*[# 235]+0.029*[# 243]+0.029*[# 271]+0.029*[# 279]
          +0.029*[# 287]+0.028*[# 251]+0.028*[# 259]+0.028*[# 267]+0.028*[# 295]
          +0.028*[# 303]+0.028*[# 311]+0.027*[# 199]+0.027*[# 203]+0.027*[# 207]
          +0.027*[# 211]+0.027*[# 215]+0.027*[# 219]+0.024*[# 175]+0.024*[# 179]
          +0.024*[# 183]+0.024*[# 187]+0.024*[# 191]+0.024*[# 195]+0.023*[# 223]
          +0.023*[# 231]+0.023*[# 239]+0.023*[# 275]+0.023*[# 283]+0.023*[# 291]
          +0.022*[# 247]+0.022*[# 255]+0.022*[# 263]+0.022*[# 299]+0.022*[# 307]
          +0.022*[# 315]+0.004*[# 123]+0.004*[# 124]+0.004*[# 150]+0.004*[# 151]
          +0.004*[# 168]+0.004*[# 169]+0.003*[# 141]+0.003*[# 142]+0.003*[# 159]
          +0.003*[# 160]+0.003*[# 132]+0.003*[# 133]+0.002*[#   2]+0.002*[#   7]
          +0.002*[#  12]+0.002*[#  17]+0.002*[#  22]+0.002*[#  27]+0.002*[#  37]
          +0.002*[#  47]+0.002*[#  57]+0.002*[#  62]+0.002*[#  72]+0.002*[#  82]
          +0.002*[#  32]+0.002*[#  42]+0.002*[#  52]+0.002*[#  67]+0.002*[#  77]
          +0.002*[#  87]
    |psi|^2 = 1.000
==== e(  68) =   -10.37015 eV ==== 
     psi = 0.029*[# 227]+0.029*[# 235]+0.029*[# 243]+0.029*[# 271]+0.029*[# 279]
          +0.029*[# 287]+0.028*[# 251]+0.028*[# 259]+0.028*[# 267]+0.028*[# 295]
          +0.028*[# 303]+0.028*[# 311]+0.027*[# 199]+0.027*[# 203]+0.027*[# 207]
          +0.027*[# 211]+0.027*[# 215]+0.027*[# 219]+0.024*[# 175]+0.024*[# 179]
          +0.024*[# 183]+0.024*[# 187]+0.024*[# 191]+0.024*[# 195]+0.023*[# 223]
          +0.023*[# 231]+0.023*[# 239]+0.023*[# 275]+0.023*[# 283]+0.023*[# 291]
          +0.022*[# 247]+0.022*[# 255]+0.022*[# 263]+0.022*[# 299]+0.022*[# 307]
          +0.022*[# 315]+0.004*[# 123]+0.004*[# 124]+0.004*[# 150]+0.004*[# 151]
          +0.004*[# 168]+0.004*[# 169]+0.003*[# 141]+0.003*[# 142]+0.003*[# 159]
          +0.003*[# 160]+0.003*[# 132]+0.003*[# 133]+0.002*[#   2]+0.002*[#   7]
          +0.002*[#  12]+0.002*[#  17]+0.002*[#  22]+0.002*[#  27]+0.002*[#  37]
          +0.002*[#  47]+0.002*[#  57]+0.002*[#  62]+0.002*[#  72]+0.002*[#  82]
          +0.002*[#  32]+0.002*[#  42]+0.002*[#  52]+0.002*[#  67]+0.002*[#  77]
          +0.002*[#  87]
    |psi|^2 = 1.000
==== e(  69) =   -10.35250 eV ==== 
     psi = 0.051*[# 251]+0.051*[# 259]+0.051*[# 267]+0.051*[# 295]+0.051*[# 303]
          +0.051*[# 311]+0.051*[# 223]+0.051*[# 231]+0.051*[# 239]+0.051*[# 275]
          +0.051*[# 283]+0.051*[# 291]+0.015*[# 199]+0.015*[# 203]+0.015*[# 207]
          +0.015*[# 211]+0.015*[# 215]+0.015*[# 219]+0.014*[# 175]+0.014*[# 179]
          +0.014*[# 183]+0.014*[# 187]+0.014*[# 191]+0.014*[# 195]+0.011*[# 247]
          +0.011*[# 255]+0.011*[# 263]+0.011*[# 299]+0.011*[# 307]+0.011*[# 315]
          +0.011*[# 227]+0.011*[# 235]+0.011*[# 243]+0.011*[# 271]+0.011*[# 279]
          +0.011*[# 287]+0.005*[#   2]+0.005*[#   7]+0.005*[#  12]+0.005*[#  17]
          +0.005*[#  22]+0.005*[#  27]+0.004*[# 150]+0.004*[# 151]+0.004*[# 168]
          +0.004*[# 169]+0.004*[# 141]+0.004*[# 142]+0.004*[# 159]+0.004*[# 160]
          +0.001*[#  32]+0.001*[#  37]+0.001*[#  42]+0.001*[#  47]+0.001*[#  52]
          +0.001*[#  57]+0.001*[#  62]+0.001*[#  67]+0.001*[#  72]+0.001*[#  77]
          +0.001*[#  82]+0.001*[#  87]
    |psi|^2 = 0.999
==== e(  70) =   -10.35250 eV ==== 
     psi = 0.051*[# 251]+0.051*[# 259]+0.051*[# 267]+0.051*[# 295]+0.051*[# 303]
          +0.051*[# 311]+0.051*[# 223]+0.051*[# 231]+0.051*[# 239]+0.051*[# 275]
          +0.051*[# 283]+0.051*[# 291]+0.015*[# 199]+0.015*[# 203]+0.015*[# 207]
          +0.015*[# 211]+0.015*[# 215]+0.015*[# 219]+0.014*[# 175]+0.014*[# 179]
          +0.014*[# 183]+0.014*[# 187]+0.014*[# 191]+0.014*[# 195]+0.011*[# 247]
          +0.011*[# 255]+0.011*[# 263]+0.011*[# 299]+0.011*[# 307]+0.011*[# 315]
          +0.011*[# 227]+0.011*[# 235]+0.011*[# 243]+0.011*[# 271]+0.011*[# 279]
          +0.011*[# 287]+0.005*[#   2]+0.005*[#   7]+0.005*[#  12]+0.005*[#  17]
          +0.005*[#  22]+0.005*[#  27]+0.004*[# 150]+0.004*[# 151]+0.004*[# 168]
          +0.004*[# 169]+0.004*[# 141]+0.004*[# 142]+0.004*[# 159]+0.004*[# 160]
          +0.001*[#  32]+0.001*[#  37]+0.001*[#  42]+0.001*[#  47]+0.001*[#  52]
          +0.001*[#  57]+0.001*[#  62]+0.001*[#  67]+0.001*[#  72]+0.001*[#  77]
          +0.001*[#  82]+0.001*[#  87]
    |psi|^2 = 0.999
==== e(  71) =   -10.35238 eV ==== 
     psi = 0.040*[# 227]+0.040*[# 235]+0.040*[# 243]+0.040*[# 271]+0.040*[# 279]
          +0.040*[# 287]+0.039*[# 247]+0.039*[# 255]+0.039*[# 263]+0.039*[# 299]
          +0.039*[# 307]+0.039*[# 315]+0.037*[# 175]+0.037*[# 179]+0.037*[# 183]
          +0.037*[# 187]+0.037*[# 191]+0.037*[# 195]+0.036*[# 199]+0.036*[# 203]
          +0.036*[# 207]+0.036*[# 211]+0.036*[# 215]+0.036*[# 219]+0.005*[# 123]
          +0.005*[# 124]+0.005*[# 132]+0.005*[# 133]+0.004*[#  32]+0.004*[#  37]
          +0.004*[#  42]+0.004*[#  47]+0.004*[#  52]+0.004*[#  57]+0.004*[#  62]
          +0.004*[#  67]+0.004*[#  72]+0.004*[#  77]+0.004*[#  82]+0.004*[#  87]
          +0.001*[# 141]+0.001*[# 142]+0.001*[# 150]+0.001*[# 151]+0.001*[# 159]
          +0.001*[# 160]+0.001*[# 168]+0.001*[# 169]
    |psi|^2 = 0.999
==== e(  72) =   -10.35238 eV ==== 
     psi = 0.040*[# 227]+0.040*[# 235]+0.040*[# 243]+0.040*[# 271]+0.040*[# 279]
          +0.040*[# 287]+0.039*[# 247]+0.039*[# 255]+0.039*[# 263]+0.039*[# 299]
          +0.039*[# 307]+0.039*[# 315]+0.037*[# 175]+0.037*[# 179]+0.037*[# 183]
          +0.037*[# 187]+0.037*[# 191]+0.037*[# 195]+0.036*[# 199]+0.036*[# 203]
          +0.036*[# 207]+0.036*[# 211]+0.036*[# 215]+0.036*[# 219]+0.005*[# 123]
          +0.005*[# 124]+0.005*[# 132]+0.005*[# 133]+0.004*[#  32]+0.004*[#  37]
          +0.004*[#  42]+0.004*[#  47]+0.004*[#  52]+0.004*[#  57]+0.004*[#  62]
          +0.004*[#  67]+0.004*[#  72]+0.004*[#  77]+0.004*[#  82]+0.004*[#  87]
          +0.001*[# 141]+0.001*[# 142]+0.001*[# 150]+0.001*[# 151]+0.001*[# 159]
          +0.001*[# 160]+0.001*[# 168]+0.001*[# 169]
    |psi|^2 = 0.999
==== e(  73) =   -10.35090 eV ==== 
     psi = 0.026*[# 251]+0.026*[# 259]+0.026*[# 267]+0.026*[# 295]+0.026*[# 303]
          +0.026*[# 311]+0.025*[# 175]+0.025*[# 179]+0.025*[# 183]+0.025*[# 187]
          +0.025*[# 191]+0.025*[# 195]+0.025*[# 199]+0.025*[# 203]+0.025*[# 207]
          +0.025*[# 211]+0.025*[# 215]+0.025*[# 219]+0.025*[# 227]+0.025*[# 235]
          +0.025*[# 243]+0.025*[# 271]+0.025*[# 279]+0.025*[# 287]+0.025*[# 223]
          +0.025*[# 231]+0.025*[# 239]+0.025*[# 275]+0.025*[# 283]+0.025*[# 291]
          +0.025*[# 247]+0.025*[# 255]+0.025*[# 263]+0.025*[# 299]+0.025*[# 307]
          +0.025*[# 315]+0.008*[# 102]+0.008*[# 107]+0.008*[# 112]+0.008*[# 117]
          +0.008*[#  92]+0.008*[#  97]+0.007*[# 122]+0.006*[# 140]+0.007*[# 149]
          +0.006*[# 158]+0.007*[# 167]+0.006*[# 131]
    |psi|^2 = 1.000
==== e(  74) =   -10.32961 eV ==== 
     psi = 0.044*[# 199]+0.044*[# 203]+0.044*[# 207]+0.044*[# 211]+0.044*[# 215]
          +0.044*[# 219]+0.043*[# 175]+0.043*[# 179]+0.043*[# 183]+0.043*[# 187]
          +0.043*[# 191]+0.043*[# 195]+0.031*[# 251]+0.031*[# 259]+0.031*[# 267]
          +0.031*[# 295]+0.031*[# 303]+0.031*[# 311]+0.030*[# 223]+0.030*[# 231]
          +0.030*[# 239]+0.030*[# 275]+0.030*[# 283]+0.030*[# 291]+0.013*[# 102]
          +0.013*[# 107]+0.013*[# 112]+0.013*[# 117]+0.009*[# 149]+0.009*[# 167]
          +0.009*[# 140]+0.009*[# 158]+0.001*[# 227]+0.001*[# 235]+0.001*[# 243]
          +0.001*[# 247]+0.001*[# 255]+0.001*[# 263]+0.001*[# 271]+0.001*[# 279]
          +0.001*[# 287]+0.001*[# 299]+0.001*[# 307]+0.001*[# 315]
    |psi|^2 = 1.000
==== e(  75) =   -10.32955 eV ==== 
     psi = 0.051*[# 247]+0.051*[# 255]+0.051*[# 263]+0.051*[# 299]+0.051*[# 307]
          +0.051*[# 315]+0.047*[# 227]+0.047*[# 235]+0.047*[# 243]+0.047*[# 271]
          +0.047*[# 279]+0.047*[# 287]+0.021*[# 223]+0.021*[# 231]+0.021*[# 239]
          +0.021*[# 275]+0.021*[# 283]+0.021*[# 291]+0.018*[# 251]+0.018*[# 259]
          +0.018*[# 267]+0.018*[# 295]+0.018*[# 303]+0.018*[# 311]+0.018*[#  92]
          +0.018*[#  97]+0.012*[# 131]+0.011*[# 122]+0.007*[# 175]+0.007*[# 179]
          +0.007*[# 183]+0.007*[# 187]+0.007*[# 191]+0.007*[# 195]+0.006*[# 199]
          +0.006*[# 203]+0.006*[# 207]+0.006*[# 211]+0.006*[# 215]+0.006*[# 219]
          +0.004*[# 102]+0.004*[# 107]+0.004*[# 112]+0.004*[# 117]+0.003*[# 140]
          +0.003*[# 158]+0.003*[# 149]+0.003*[# 167]
    |psi|^2 = 1.000
==== e(  76) =   -10.32292 eV ==== 
     psi = 0.028*[# 227]+0.028*[# 235]+0.028*[# 243]+0.028*[# 271]+0.028*[# 279]
          +0.028*[# 287]+0.027*[# 251]+0.027*[# 259]+0.027*[# 267]+0.027*[# 295]
          +0.027*[# 303]+0.027*[# 311]+0.027*[# 199]+0.027*[# 203]+0.027*[# 207]
          +0.027*[# 211]+0.027*[# 215]+0.027*[# 219]+0.026*[# 175]+0.026*[# 179]
          +0.026*[# 183]+0.026*[# 187]+0.026*[# 191]+0.026*[# 195]+0.025*[# 223]
          +0.025*[# 231]+0.025*[# 239]+0.025*[# 275]+0.025*[# 283]+0.025*[# 291]
          +0.025*[# 247]+0.025*[# 255]+0.025*[# 263]+0.025*[# 299]+0.025*[# 307]
          +0.025*[# 315]+0.009*[# 122]+0.008*[# 149]+0.008*[# 167]+0.008*[# 140]
          +0.008*[# 158]+0.008*[# 131]
    |psi|^2 = 1.000
==== e(  77) =   -10.31772 eV ==== 
     psi = 0.028*[# 175]+0.028*[# 179]+0.028*[# 183]+0.028*[# 187]+0.028*[# 191]
          +0.028*[# 195]+0.028*[# 251]+0.028*[# 259]+0.028*[# 267]+0.028*[# 295]
          +0.028*[# 303]+0.028*[# 311]+0.027*[# 227]+0.027*[# 235]+0.027*[# 243]
          +0.027*[# 271]+0.027*[# 279]+0.027*[# 287]+0.027*[# 199]+0.027*[# 203]
          +0.027*[# 207]+0.027*[# 211]+0.027*[# 215]+0.027*[# 219]+0.027*[# 247]
          +0.027*[# 255]+0.027*[# 263]+0.027*[# 299]+0.027*[# 307]+0.027*[# 315]
          +0.027*[# 223]+0.027*[# 231]+0.027*[# 239]+0.027*[# 275]+0.027*[# 283]
          +0.027*[# 291]
    |psi|^2 = 0.999
==== e(  78) =   -10.31772 eV ==== 
     psi = 0.028*[# 175]+0.028*[# 179]+0.028*[# 183]+0.028*[# 187]+0.028*[# 191]
          +0.028*[# 195]+0.028*[# 251]+0.028*[# 259]+0.028*[# 267]+0.028*[# 295]
          +0.028*[# 303]+0.028*[# 311]+0.027*[# 227]+0.027*[# 235]+0.027*[# 243]
          +0.027*[# 271]+0.027*[# 279]+0.027*[# 287]+0.027*[# 199]+0.027*[# 203]
          +0.027*[# 207]+0.027*[# 211]+0.027*[# 215]+0.027*[# 219]+0.027*[# 247]
          +0.027*[# 255]+0.027*[# 263]+0.027*[# 299]+0.027*[# 307]+0.027*[# 315]
          +0.027*[# 223]+0.027*[# 231]+0.027*[# 239]+0.027*[# 275]+0.027*[# 283]
          +0.027*[# 291]
    |psi|^2 = 0.999
==== e(  79) =   -10.30179 eV ==== 
     psi = 0.027*[# 223]+0.027*[# 231]+0.027*[# 239]+0.027*[# 275]+0.027*[# 283]
          +0.027*[# 291]+0.026*[# 199]+0.026*[# 203]+0.026*[# 207]+0.026*[# 211]
          +0.026*[# 215]+0.026*[# 219]+0.026*[# 247]+0.026*[# 255]+0.026*[# 263]
          +0.026*[# 299]+0.026*[# 307]+0.026*[# 315]+0.026*[# 227]+0.026*[# 235]
          +0.026*[# 243]+0.026*[# 271]+0.026*[# 279]+0.026*[# 287]+0.026*[# 175]
          +0.026*[# 179]+0.026*[# 183]+0.026*[# 187]+0.026*[# 191]+0.026*[# 195]
          +0.026*[# 251]+0.026*[# 259]+0.026*[# 267]+0.026*[# 295]+0.026*[# 303]
          +0.026*[# 311]+0.004*[# 123]+0.004*[# 124]+0.004*[# 132]+0.004*[# 133]
          +0.004*[# 141]+0.004*[# 142]+0.004*[# 150]+0.004*[# 151]+0.004*[# 159]
          +0.004*[# 160]+0.004*[# 168]+0.004*[# 169]
    |psi|^2 = 0.999
==== e(  80) =   -10.30179 eV ==== 
     psi = 0.027*[# 223]+0.027*[# 231]+0.027*[# 239]+0.027*[# 275]+0.027*[# 283]
          +0.027*[# 291]+0.026*[# 199]+0.026*[# 203]+0.026*[# 207]+0.026*[# 211]
          +0.026*[# 215]+0.026*[# 219]+0.026*[# 247]+0.026*[# 255]+0.026*[# 263]
          +0.026*[# 299]+0.026*[# 307]+0.026*[# 315]+0.026*[# 227]+0.026*[# 235]
          +0.026*[# 243]+0.026*[# 271]+0.026*[# 279]+0.026*[# 287]+0.026*[# 175]
          +0.026*[# 179]+0.026*[# 183]+0.026*[# 187]+0.026*[# 191]+0.026*[# 195]
          +0.026*[# 251]+0.026*[# 259]+0.026*[# 267]+0.026*[# 295]+0.026*[# 303]
          +0.026*[# 311]+0.004*[# 123]+0.004*[# 124]+0.004*[# 132]+0.004*[# 133]
          +0.004*[# 141]+0.004*[# 142]+0.004*[# 150]+0.004*[# 151]+0.004*[# 159]
          +0.004*[# 160]+0.004*[# 168]+0.004*[# 169]
    |psi|^2 = 0.999
==== e(  81) =   -10.25976 eV ==== 
     psi = 0.055*[# 223]+0.055*[# 231]+0.055*[# 239]+0.055*[# 275]+0.055*[# 283]
          +0.055*[# 291]+0.054*[# 251]+0.054*[# 259]+0.054*[# 267]+0.054*[# 295]
          +0.054*[# 303]+0.054*[# 311]+0.017*[# 175]+0.017*[# 179]+0.017*[# 183]
          +0.017*[# 187]+0.017*[# 191]+0.017*[# 195]+0.016*[# 199]+0.016*[# 203]
          +0.016*[# 207]+0.016*[# 211]+0.016*[# 215]+0.016*[# 219]+0.011*[# 227]
          +0.011*[# 235]+0.011*[# 243]+0.011*[# 271]+0.011*[# 279]+0.011*[# 287]
          +0.011*[# 247]+0.011*[# 255]+0.011*[# 263]+0.011*[# 299]+0.011*[# 307]
          +0.011*[# 315]+0.002*[# 123]+0.002*[# 124]+0.002*[# 132]+0.002*[# 133]
          
    |psi|^2 = 0.999
==== e(  82) =   -10.25976 eV ==== 
     psi = 0.055*[# 223]+0.055*[# 231]+0.055*[# 239]+0.055*[# 275]+0.055*[# 283]
          +0.055*[# 291]+0.054*[# 251]+0.054*[# 259]+0.054*[# 267]+0.054*[# 295]
          +0.054*[# 303]+0.054*[# 311]+0.017*[# 175]+0.017*[# 179]+0.017*[# 183]
          +0.017*[# 187]+0.017*[# 191]+0.017*[# 195]+0.016*[# 199]+0.016*[# 203]
          +0.016*[# 207]+0.016*[# 211]+0.016*[# 215]+0.016*[# 219]+0.011*[# 227]
          +0.011*[# 235]+0.011*[# 243]+0.011*[# 271]+0.011*[# 279]+0.011*[# 287]
          +0.011*[# 247]+0.011*[# 255]+0.011*[# 263]+0.011*[# 299]+0.011*[# 307]
          +0.011*[# 315]+0.002*[# 123]+0.002*[# 124]+0.002*[# 132]+0.002*[# 133]
          
    |psi|^2 = 0.999
==== e(  83) =   -10.25964 eV ==== 
     psi = 0.044*[# 247]+0.044*[# 255]+0.044*[# 263]+0.044*[# 299]+0.044*[# 307]
          +0.044*[# 315]+0.042*[# 227]+0.042*[# 235]+0.042*[# 243]+0.042*[# 271]
          +0.042*[# 279]+0.042*[# 287]+0.039*[# 199]+0.039*[# 203]+0.039*[# 207]
          +0.039*[# 211]+0.039*[# 215]+0.039*[# 219]+0.038*[# 175]+0.038*[# 179]
          +0.038*[# 183]+0.038*[# 187]+0.038*[# 191]+0.038*[# 195]+0.001*[# 141]
          +0.001*[# 142]+0.001*[# 150]+0.001*[# 151]+0.001*[# 159]+0.001*[# 160]
          +0.001*[# 168]+0.001*[# 169]
    |psi|^2 = 0.999
==== e(  84) =   -10.25964 eV ==== 
     psi = 0.044*[# 247]+0.044*[# 255]+0.044*[# 263]+0.044*[# 299]+0.044*[# 307]
          +0.044*[# 315]+0.043*[# 227]+0.043*[# 235]+0.043*[# 243]+0.043*[# 271]
          +0.043*[# 279]+0.043*[# 287]+0.039*[# 199]+0.039*[# 203]+0.039*[# 207]
          +0.039*[# 211]+0.039*[# 215]+0.039*[# 219]+0.038*[# 175]+0.038*[# 179]
          +0.038*[# 183]+0.038*[# 187]+0.038*[# 191]+0.038*[# 195]+0.001*[# 141]
          +0.001*[# 142]+0.001*[# 150]+0.001*[# 151]+0.001*[# 159]+0.001*[# 160]
          +0.001*[# 168]+0.001*[# 169]
    |psi|^2 = 0.999
==== e(  85) =   -10.25347 eV ==== 
     psi = 0.029*[# 247]+0.029*[# 255]+0.029*[# 263]+0.029*[# 299]+0.029*[# 307]
          +0.029*[# 315]+0.028*[# 223]+0.028*[# 231]+0.028*[# 239]+0.028*[# 275]
          +0.028*[# 283]+0.028*[# 291]+0.028*[# 175]+0.028*[# 179]+0.028*[# 183]
          +0.028*[# 187]+0.028*[# 191]+0.028*[# 195]+0.027*[# 199]+0.027*[# 203]
          +0.027*[# 207]+0.027*[# 211]+0.027*[# 215]+0.027*[# 219]+0.027*[# 251]
          +0.027*[# 259]+0.027*[# 267]+0.027*[# 295]+0.027*[# 303]+0.027*[# 311]
          +0.026*[# 227]+0.026*[# 235]+0.026*[# 243]+0.026*[# 271]+0.026*[# 279]
          +0.026*[# 287]
    |psi|^2 = 0.999
==== e(  86) =   -10.25347 eV ==== 
     psi = 0.029*[# 247]+0.029*[# 255]+0.029*[# 263]+0.029*[# 299]+0.029*[# 307]
          +0.029*[# 315]+0.028*[# 223]+0.028*[# 231]+0.028*[# 239]+0.028*[# 275]
          +0.028*[# 283]+0.028*[# 291]+0.028*[# 175]+0.028*[# 179]+0.028*[# 183]
          +0.028*[# 187]+0.028*[# 191]+0.028*[# 195]+0.027*[# 199]+0.027*[# 203]
          +0.027*[# 207]+0.027*[# 211]+0.027*[# 215]+0.027*[# 219]+0.027*[# 251]
          +0.027*[# 259]+0.027*[# 267]+0.027*[# 295]+0.027*[# 303]+0.027*[# 311]
          +0.026*[# 227]+0.026*[# 235]+0.026*[# 243]+0.026*[# 271]+0.026*[# 279]
          +0.026*[# 287]
    |psi|^2 = 0.999
==== e(  87) =   -10.24269 eV ==== 
     psi = 0.046*[# 199]+0.046*[# 203]+0.046*[# 207]+0.046*[# 211]+0.046*[# 215]
          +0.046*[# 219]+0.046*[# 175]+0.046*[# 179]+0.046*[# 183]+0.046*[# 187]
          +0.046*[# 191]+0.046*[# 195]+0.037*[# 251]+0.037*[# 259]+0.037*[# 267]
          +0.037*[# 295]+0.037*[# 303]+0.037*[# 311]+0.035*[# 223]+0.035*[# 231]
          +0.035*[# 239]+0.035*[# 275]+0.035*[# 283]+0.035*[# 291]+0.001*[# 227]
          +0.001*[# 235]+0.001*[# 243]+0.001*[# 271]+0.001*[# 279]+0.001*[# 287]
          
    |psi|^2 = 0.999
==== e(  88) =   -10.24269 eV ==== 
     psi = 0.047*[# 199]+0.047*[# 203]+0.047*[# 207]+0.047*[# 211]+0.047*[# 215]
          +0.047*[# 219]+0.046*[# 175]+0.046*[# 179]+0.046*[# 183]+0.046*[# 187]
          +0.046*[# 191]+0.046*[# 195]+0.037*[# 251]+0.037*[# 259]+0.037*[# 267]
          +0.037*[# 295]+0.037*[# 303]+0.037*[# 311]+0.035*[# 223]+0.035*[# 231]
          +0.035*[# 239]+0.035*[# 275]+0.035*[# 283]+0.035*[# 291]+0.001*[# 227]
          +0.001*[# 235]+0.001*[# 243]+0.001*[# 271]+0.001*[# 279]+0.001*[# 287]
          
    |psi|^2 = 0.999
==== e(  89) =   -10.24262 eV ==== 
     psi = 0.056*[# 227]+0.056*[# 235]+0.056*[# 243]+0.056*[# 271]+0.056*[# 279]
          +0.056*[# 287]+0.052*[# 247]+0.052*[# 255]+0.052*[# 263]+0.052*[# 299]
          +0.052*[# 307]+0.052*[# 315]+0.020*[# 251]+0.020*[# 259]+0.020*[# 267]
          +0.020*[# 295]+0.020*[# 303]+0.020*[# 311]+0.019*[# 223]+0.019*[# 231]
          +0.019*[# 239]+0.019*[# 275]+0.019*[# 283]+0.019*[# 291]+0.009*[# 199]
          +0.009*[# 203]+0.009*[# 207]+0.009*[# 211]+0.009*[# 215]+0.009*[# 219]
          +0.009*[# 175]+0.009*[# 179]+0.009*[# 183]+0.009*[# 187]+0.009*[# 191]
          +0.009*[# 195]
    |psi|^2 = 0.999
==== e(  90) =   -10.24262 eV ==== 
     psi = 0.056*[# 227]+0.056*[# 235]+0.056*[# 243]+0.056*[# 271]+0.056*[# 279]
          +0.056*[# 287]+0.052*[# 247]+0.052*[# 255]+0.052*[# 263]+0.052*[# 299]
          +0.052*[# 307]+0.052*[# 315]+0.020*[# 251]+0.020*[# 259]+0.020*[# 267]
          +0.020*[# 295]+0.020*[# 303]+0.020*[# 311]+0.019*[# 223]+0.019*[# 231]
          +0.019*[# 239]+0.019*[# 275]+0.019*[# 283]+0.019*[# 291]+0.009*[# 199]
          +0.009*[# 203]+0.009*[# 207]+0.009*[# 211]+0.009*[# 215]+0.009*[# 219]
          +0.009*[# 175]+0.009*[# 179]+0.009*[# 183]+0.009*[# 187]+0.009*[# 191]
          +0.009*[# 195]
    |psi|^2 = 0.999
==== e(  91) =    -4.25093 eV ==== 
     psi = 0.052*[# 104]+0.052*[# 105]+0.052*[# 119]+0.052*[# 120]+0.051*[#  94]
          +0.051*[#  95]+0.051*[#  99]+0.051*[# 100]+0.051*[# 109]+0.051*[# 110]
          +0.051*[# 114]+0.051*[# 115]+0.014*[#   3]+0.014*[#   8]+0.014*[#  13]
          +0.014*[#  18]+0.014*[#  23]+0.014*[#  28]+0.014*[#  33]+0.014*[#  43]
          +0.014*[#  53]+0.014*[#  68]+0.014*[#  78]+0.014*[#  88]+0.014*[#  38]
          +0.014*[#  48]+0.014*[#  58]+0.014*[#  63]+0.014*[#  73]+0.014*[#  83]
          +0.004*[#   4]+0.004*[#   9]+0.004*[#  34]+0.004*[#  69]+0.004*[#  39]
          +0.004*[#  64]+0.003*[#  15]+0.003*[#  20]+0.003*[#  25]+0.003*[#  30]
          +0.003*[#  45]+0.003*[#  50]+0.003*[#  55]+0.003*[#  60]+0.003*[#  75]
          +0.003*[#  80]+0.003*[#  85]+0.003*[#  90]+0.002*[#  14]+0.002*[#  19]
          +0.002*[#  24]+0.002*[#  29]+0.002*[#  44]+0.002*[#  49]+0.002*[#  54]
          +0.002*[#  59]+0.002*[#  74]+0.002*[#  79]+0.002*[#  84]+0.002*[#  89]
          
    |psi|^2 = 1.000
==== e(  92) =    -4.25093 eV ==== 
     psi = 0.052*[# 104]+0.052*[# 105]+0.052*[# 119]+0.052*[# 120]+0.051*[#  94]
          +0.051*[#  95]+0.051*[#  99]+0.051*[# 100]+0.051*[# 109]+0.051*[# 110]
          +0.051*[# 114]+0.051*[# 115]+0.014*[#   3]+0.014*[#   8]+0.014*[#  13]
          +0.014*[#  18]+0.014*[#  23]+0.014*[#  28]+0.014*[#  33]+0.014*[#  43]
          +0.014*[#  53]+0.014*[#  68]+0.014*[#  78]+0.014*[#  88]+0.014*[#  38]
          +0.014*[#  48]+0.014*[#  58]+0.014*[#  63]+0.014*[#  73]+0.014*[#  83]
          +0.004*[#   4]+0.004*[#   9]+0.004*[#  34]+0.004*[#  69]+0.004*[#  39]
          +0.004*[#  64]+0.003*[#  15]+0.003*[#  20]+0.003*[#  25]+0.003*[#  30]
          +0.003*[#  45]+0.003*[#  50]+0.003*[#  55]+0.003*[#  60]+0.003*[#  75]
          +0.003*[#  80]+0.003*[#  85]+0.003*[#  90]+0.002*[#  14]+0.002*[#  19]
          +0.002*[#  24]+0.002*[#  29]+0.002*[#  44]+0.002*[#  49]+0.002*[#  54]
          +0.002*[#  59]+0.002*[#  74]+0.002*[#  79]+0.002*[#  84]+0.002*[#  89]
          
    |psi|^2 = 1.000
==== e(  93) =    -4.22591 eV ==== 
     psi = 0.048*[# 104]+0.048*[# 105]+0.048*[# 119]+0.048*[# 120]+0.046*[#  94]
          +0.046*[#  95]+0.046*[#  99]+0.046*[# 100]+0.046*[# 109]+0.046*[# 110]
          +0.046*[# 114]+0.046*[# 115]+0.019*[#   5]+0.019*[#  10]+0.019*[#  35]
          +0.019*[#  70]+0.019*[#  40]+0.019*[#  65]+0.015*[#  14]+0.015*[#  19]
          +0.015*[#  24]+0.015*[#  29]+0.015*[#  44]+0.015*[#  54]+0.015*[#  79]
          +0.015*[#  89]+0.015*[#  49]+0.015*[#  59]+0.015*[#  74]+0.015*[#  84]
          +0.007*[#  15]+0.007*[#  20]+0.007*[#  25]+0.007*[#  30]+0.007*[#  45]
          +0.007*[#  50]+0.007*[#  55]+0.007*[#  60]+0.007*[#  75]+0.007*[#  80]
          +0.007*[#  85]+0.007*[#  90]+0.003*[#   4]+0.003*[#   9]+0.003*[#  34]
          +0.003*[#  39]+0.003*[#  64]+0.003*[#  69]
    |psi|^2 = 1.000
==== e(  94) =    -4.22591 eV ==== 
     psi = 0.048*[# 104]+0.048*[# 105]+0.048*[# 119]+0.048*[# 120]+0.046*[#  94]
          +0.046*[#  95]+0.046*[#  99]+0.046*[# 100]+0.046*[# 109]+0.046*[# 110]
          +0.046*[# 114]+0.046*[# 115]+0.019*[#   5]+0.019*[#  10]+0.019*[#  35]
          +0.019*[#  70]+0.019*[#  40]+0.019*[#  65]+0.015*[#  14]+0.015*[#  19]
          +0.015*[#  24]+0.015*[#  29]+0.015*[#  44]+0.015*[#  54]+0.015*[#  79]
          +0.015*[#  89]+0.015*[#  49]+0.015*[#  59]+0.015*[#  74]+0.015*[#  84]
          +0.007*[#  15]+0.007*[#  20]+0.007*[#  25]+0.007*[#  30]+0.007*[#  45]
          +0.007*[#  50]+0.007*[#  55]+0.007*[#  60]+0.007*[#  75]+0.007*[#  80]
          +0.007*[#  85]+0.007*[#  90]+0.003*[#   4]+0.003*[#   9]+0.003*[#  34]
          +0.003*[#  39]+0.003*[#  64]+0.003*[#  69]
    |psi|^2 = 1.000
==== e(  95) =    -4.22579 eV ==== 
     psi = 0.078*[# 103]+0.078*[# 118]+0.076*[# 108]+0.076*[# 113]+0.076*[#  93]
          +0.076*[#  98]+0.024*[#   3]+0.024*[#   8]+0.024*[#  13]+0.024*[#  18]
          +0.024*[#  23]+0.024*[#  28]+0.024*[#  33]+0.024*[#  38]+0.024*[#  43]
          +0.024*[#  48]+0.024*[#  53]+0.024*[#  58]+0.024*[#  63]+0.024*[#  68]
          +0.024*[#  73]+0.024*[#  78]+0.024*[#  83]+0.024*[#  88]+0.003*[#   5]
          +0.003*[#  10]+0.003*[#  35]+0.003*[#  40]+0.003*[#  65]+0.003*[#  70]
          +0.002*[#  14]+0.002*[#  19]+0.002*[#  24]+0.002*[#  29]+0.002*[#  44]
          +0.002*[#  49]+0.002*[#  54]+0.002*[#  59]+0.002*[#  74]+0.002*[#  79]
          +0.002*[#  84]+0.002*[#  89]+0.001*[# 176]+0.001*[# 180]+0.001*[# 184]
          +0.001*[# 188]+0.001*[# 192]+0.001*[# 196]+0.001*[# 200]+0.001*[# 204]
          +0.001*[# 208]+0.001*[# 212]+0.001*[# 216]+0.001*[# 220]+0.001*[# 224]
          +0.001*[# 228]+0.001*[# 232]+0.001*[# 236]+0.001*[# 240]+0.001*[# 244]
          +0.001*[# 248]+0.001*[# 252]+0.001*[# 256]+0.001*[# 260]+0.001*[# 264]
          +0.001*[# 268]+0.001*[# 272]+0.001*[# 276]+0.001*[# 280]+0.001*[# 284]
          +0.001*[# 288]+0.001*[# 292]+0.001*[# 296]+0.001*[# 300]+0.001*[# 304]
          +0.001*[# 308]+0.001*[# 312]+0.001*[# 316]
    |psi|^2 = 1.000
==== e(  96) =    -4.20610 eV ==== 
     psi = 0.181*[# 103]+0.181*[# 118]+0.172*[# 108]+0.172*[# 113]+0.019*[#  33]
          +0.019*[#  43]+0.019*[#  53]+0.019*[#  68]+0.019*[#  78]+0.019*[#  88]
          +0.018*[#  38]+0.018*[#  48]+0.018*[#  58]+0.018*[#  63]+0.018*[#  73]
          +0.018*[#  83]+0.003*[# 139]+0.003*[# 148]+0.003*[# 157]+0.003*[# 166]
          +0.002*[# 193]+0.002*[# 197]+0.002*[# 201]+0.002*[# 205]+0.002*[# 178]
          +0.002*[# 182]+0.002*[# 210]+0.002*[# 214]+0.002*[# 241]+0.002*[# 293]
          +0.002*[# 186]+0.002*[# 190]+0.002*[# 218]+0.002*[# 222]+0.002*[# 253]
          +0.002*[# 297]+0.001*[# 226]+0.001*[# 262]+0.001*[# 278]+0.001*[# 306]
          +0.001*[# 234]+0.001*[# 270]+0.001*[# 286]+0.001*[# 314]
    |psi|^2 = 1.000
==== e(  97) =    -4.20602 eV ==== 
     psi = 0.236*[#  93]+0.236*[#  98]+0.061*[# 103]+0.061*[# 118]+0.056*[# 108]
          +0.056*[# 113]+0.024*[#   3]+0.024*[#   8]+0.024*[#  13]+0.024*[#  18]
          +0.024*[#  23]+0.024*[#  28]+0.006*[#  33]+0.006*[#  43]+0.006*[#  53]
          +0.006*[#  68]+0.006*[#  78]+0.006*[#  88]+0.006*[#  38]+0.006*[#  48]
          +0.006*[#  58]+0.006*[#  63]+0.006*[#  73]+0.006*[#  83]+0.004*[# 121]
          +0.004*[# 130]+0.003*[# 245]+0.003*[# 249]+0.003*[# 289]+0.003*[# 301]
          +0.002*[# 230]+0.002*[# 258]+0.002*[# 274]+0.002*[# 310]+0.002*[# 238]
          +0.002*[# 266]+0.002*[# 282]+0.002*[# 318]
    |psi|^2 = 1.000
==== e(  98) =    -4.20567 eV ==== 
     psi = 0.076*[# 104]+0.076*[# 105]+0.076*[# 119]+0.076*[# 120]+0.073*[# 109]
          +0.073*[# 110]+0.073*[# 114]+0.073*[# 115]+0.039*[#  94]+0.039*[#  95]
          +0.039*[#  99]+0.039*[# 100]+0.008*[#  45]+0.008*[#  60]+0.008*[#  80]
          +0.008*[#  34]+0.008*[#  69]+0.008*[#  85]+0.008*[#  39]+0.008*[#  64]
          +0.006*[#  49]+0.006*[#  54]+0.006*[#  74]+0.006*[#  89]+0.005*[#  55]
          +0.005*[#  90]+0.005*[#  50]+0.005*[#  75]+0.005*[#   4]+0.005*[#   9]
          +0.004*[#  15]+0.004*[#  20]+0.004*[#  25]+0.004*[#  30]+0.003*[#  38]
          +0.003*[#  48]+0.003*[#  58]+0.003*[#  63]+0.003*[#  73]+0.003*[#  83]
          +0.003*[#  33]+0.003*[#  43]+0.003*[#  53]+0.003*[#  68]+0.003*[#  78]
          +0.003*[#  88]+0.003*[#  35]+0.003*[#  40]+0.003*[#  65]+0.003*[#  70]
          +0.003*[#  44]+0.002*[#  59]+0.003*[#  79]+0.002*[#  84]+0.002*[#   3]
          +0.002*[#   8]+0.002*[#  13]+0.002*[#  18]+0.002*[#  23]+0.002*[#  28]
          +0.001*[#  14]+0.001*[#  19]+0.001*[#  24]+0.001*[#  29]
    |psi|^2 = 1.000
==== e(  99) =    -4.20567 eV ==== 
     psi = 0.076*[# 104]+0.076*[# 105]+0.076*[# 119]+0.076*[# 120]+0.073*[# 109]
          +0.073*[# 110]+0.073*[# 114]+0.073*[# 115]+0.039*[#  94]+0.039*[#  95]
          +0.039*[#  99]+0.039*[# 100]+0.008*[#  45]+0.008*[#  60]+0.008*[#  80]
          +0.008*[#  34]+0.008*[#  69]+0.008*[#  85]+0.008*[#  39]+0.008*[#  64]
          +0.006*[#  49]+0.006*[#  54]+0.006*[#  74]+0.006*[#  89]+0.005*[#  55]
          +0.005*[#  90]+0.005*[#  50]+0.005*[#  75]+0.005*[#   4]+0.005*[#   9]
          +0.004*[#  15]+0.004*[#  20]+0.004*[#  25]+0.004*[#  30]+0.003*[#  38]
          +0.003*[#  48]+0.003*[#  58]+0.003*[#  63]+0.003*[#  73]+0.003*[#  83]
          +0.003*[#  33]+0.003*[#  43]+0.003*[#  53]+0.003*[#  68]+0.003*[#  78]
          +0.003*[#  88]+0.003*[#  35]+0.003*[#  40]+0.003*[#  65]+0.003*[#  70]
          +0.003*[#  44]+0.002*[#  59]+0.003*[#  79]+0.002*[#  84]+0.002*[#   3]
          +0.002*[#   8]+0.002*[#  13]+0.002*[#  18]+0.002*[#  23]+0.002*[#  28]
          +0.001*[#  14]+0.001*[#  19]+0.001*[#  24]+0.001*[#  29]
    |psi|^2 = 1.000
==== e( 100) =    -4.20565 eV ==== 
     psi = 0.086*[#  94]+0.086*[#  95]+0.086*[#  99]+0.086*[# 100]+0.053*[# 104]
          +0.053*[# 105]+0.053*[# 119]+0.053*[# 120]+0.050*[# 109]+0.050*[# 110]
          +0.050*[# 114]+0.050*[# 115]+0.009*[#   4]+0.009*[#   9]+0.008*[#  15]
          +0.008*[#  20]+0.008*[#  25]+0.008*[#  30]+0.006*[#  55]+0.006*[#  90]
          +0.006*[#  34]+0.006*[#  50]+0.006*[#  69]+0.006*[#  75]+0.006*[#  39]
          +0.006*[#  64]+0.005*[#  14]+0.005*[#  19]+0.005*[#  24]+0.005*[#  29]
          +0.004*[#  44]+0.004*[#  59]+0.004*[#  79]+0.004*[#  84]+0.003*[#   5]
          +0.003*[#  10]+0.003*[#   3]+0.003*[#   8]+0.003*[#  13]+0.003*[#  18]
          +0.003*[#  23]+0.003*[#  28]+0.003*[#  45]+0.003*[#  80]+0.003*[#  60]
          +0.003*[#  85]+0.003*[#  33]+0.003*[#  38]+0.003*[#  43]+0.003*[#  48]
          +0.003*[#  53]+0.003*[#  58]+0.003*[#  63]+0.003*[#  68]+0.003*[#  73]
          +0.003*[#  78]+0.003*[#  83]+0.003*[#  88]
    |psi|^2 = 1.000
==== e( 101) =    -4.20565 eV ==== 
     psi = 0.086*[#  94]+0.086*[#  95]+0.086*[#  99]+0.086*[# 100]+0.053*[# 104]
          +0.053*[# 105]+0.053*[# 119]+0.053*[# 120]+0.050*[# 109]+0.050*[# 110]
          +0.050*[# 114]+0.050*[# 115]+0.009*[#   4]+0.009*[#   9]+0.008*[#  15]
          +0.008*[#  20]+0.008*[#  25]+0.008*[#  30]+0.006*[#  55]+0.006*[#  90]
          +0.006*[#  34]+0.006*[#  50]+0.006*[#  69]+0.006*[#  75]+0.006*[#  39]
          +0.006*[#  64]+0.005*[#  14]+0.005*[#  19]+0.005*[#  24]+0.005*[#  29]
          +0.004*[#  44]+0.004*[#  59]+0.004*[#  79]+0.004*[#  84]+0.003*[#   5]
          +0.003*[#  10]+0.003*[#   3]+0.003*[#   8]+0.003*[#  13]+0.003*[#  18]
          +0.003*[#  23]+0.003*[#  28]+0.003*[#  45]+0.003*[#  80]+0.003*[#  60]
          +0.003*[#  85]+0.003*[#  33]+0.003*[#  38]+0.003*[#  43]+0.003*[#  48]
          +0.003*[#  53]+0.003*[#  58]+0.003*[#  63]+0.003*[#  68]+0.003*[#  73]
          +0.003*[#  78]+0.003*[#  83]+0.003*[#  88]
    |psi|^2 = 1.000
==== e( 102) =    -4.19584 eV ==== 
     psi = 0.152*[# 108]+0.152*[# 113]+0.146*[# 103]+0.146*[# 118]+0.019*[#  38]
          +0.019*[#  48]+0.019*[#  58]+0.019*[#  63]+0.019*[#  73]+0.019*[#  83]
          +0.019*[#  33]+0.019*[#  43]+0.019*[#  53]+0.019*[#  68]+0.019*[#  78]
          +0.019*[#  88]+0.011*[#   4]+0.011*[#   9]+0.008*[#  15]+0.008*[#  20]
          +0.008*[#  25]+0.008*[#  30]+0.004*[#  45]+0.004*[#  60]+0.004*[#  80]
          +0.004*[#  85]+0.003*[#  14]+0.003*[#  19]+0.003*[#  24]+0.003*[#  29]
          +0.003*[#  34]+0.003*[#  39]+0.003*[#  49]+0.003*[#  54]+0.003*[#  64]
          +0.003*[#  69]+0.003*[#  74]+0.003*[#  89]+0.002*[# 140]+0.003*[# 149]
          +0.002*[# 158]+0.003*[# 167]+0.001*[#  92]+0.001*[#  97]+0.001*[# 178]
          +0.001*[# 182]+0.001*[# 193]+0.001*[# 197]+0.001*[# 297]+0.001*[# 201]
          +0.001*[# 205]+0.001*[# 210]+0.001*[# 214]+0.001*[# 226]+0.001*[# 241]
          +0.001*[# 253]+0.001*[# 262]+0.001*[# 278]+0.001*[# 293]+0.001*[# 306]
          
    |psi|^2 = 1.000
==== e( 103) =    -4.19578 eV ==== 
     psi = 0.197*[#  93]+0.197*[#  98]+0.053*[# 108]+0.053*[# 113]+0.047*[# 103]
          +0.047*[# 118]+0.026*[#   3]+0.026*[#   8]+0.026*[#  13]+0.026*[#  18]
          +0.026*[#  23]+0.026*[#  28]+0.008*[#  34]+0.008*[#  69]+0.008*[#  39]
          +0.008*[#  64]+0.008*[#  55]+0.008*[#  90]+0.007*[#  50]+0.007*[#  75]
          +0.007*[#  38]+0.007*[#  48]+0.007*[#  58]+0.007*[#  63]+0.007*[#  73]
          +0.007*[#  83]+0.006*[#  33]+0.006*[#  43]+0.006*[#  53]+0.006*[#  68]
          +0.006*[#  78]+0.006*[#  88]+0.005*[#  45]+0.005*[#  60]+0.005*[#  80]
          +0.005*[#  85]+0.004*[#  44]+0.004*[#  59]+0.004*[#  79]+0.004*[#  84]
          +0.003*[# 122]+0.003*[# 131]+0.002*[# 230]+0.002*[# 245]+0.002*[# 249]
          +0.002*[# 258]+0.002*[# 274]+0.002*[# 289]+0.002*[# 301]+0.002*[# 310]
          +0.001*[#   5]+0.001*[#  10]
    |psi|^2 = 1.000
==== e( 104) =    -4.19577 eV ==== 
     psi = 0.081*[# 109]+0.081*[# 110]+0.081*[# 114]+0.081*[# 115]+0.076*[# 104]
          +0.076*[# 105]+0.076*[# 119]+0.076*[# 120]+0.042*[#  94]+0.042*[#  95]
          +0.042*[#  99]+0.042*[# 100]+0.005*[#  33]+0.005*[#  38]+0.005*[#  43]
          +0.005*[#  48]+0.005*[#  53]+0.005*[#  58]+0.005*[#  63]+0.005*[#  68]
          +0.005*[#  73]+0.005*[#  78]+0.005*[#  83]+0.005*[#  88]+0.004*[#   5]
          +0.004*[#  10]+0.004*[#  14]+0.004*[#  19]+0.004*[#  24]+0.004*[#  29]
          +0.004*[#  15]+0.004*[#  20]+0.004*[#  25]+0.004*[#  30]+0.004*[#  60]
          +0.004*[#  85]+0.004*[#   4]+0.004*[#   9]+0.004*[#  45]+0.004*[#  80]
          +0.003*[#  39]+0.003*[#  49]+0.003*[#  54]+0.003*[#  64]+0.003*[#  74]
          +0.003*[#  89]+0.003*[#   3]+0.003*[#   8]+0.003*[#  13]+0.003*[#  18]
          +0.003*[#  23]+0.003*[#  28]+0.003*[#  34]+0.003*[#  69]+0.001*[#  35]
          +0.001*[#  40]+0.001*[#  50]+0.001*[#  55]+0.001*[#  65]+0.001*[#  70]
          +0.001*[#  75]+0.001*[#  90]
    |psi|^2 = 1.000
==== e( 105) =    -4.19577 eV ==== 
     psi = 0.081*[# 109]+0.081*[# 110]+0.081*[# 114]+0.081*[# 115]+0.076*[# 104]
          +0.076*[# 105]+0.076*[# 119]+0.076*[# 120]+0.042*[#  94]+0.042*[#  95]
          +0.042*[#  99]+0.042*[# 100]+0.005*[#  33]+0.005*[#  38]+0.005*[#  43]
          +0.005*[#  48]+0.005*[#  53]+0.005*[#  58]+0.005*[#  63]+0.005*[#  68]
          +0.005*[#  73]+0.005*[#  78]+0.005*[#  83]+0.005*[#  88]+0.004*[#   5]
          +0.004*[#  10]+0.004*[#  14]+0.004*[#  19]+0.004*[#  24]+0.004*[#  29]
          +0.004*[#  15]+0.004*[#  20]+0.004*[#  25]+0.004*[#  30]+0.004*[#  60]
          +0.004*[#  85]+0.004*[#   4]+0.004*[#   9]+0.004*[#  45]+0.004*[#  80]
          +0.003*[#  39]+0.003*[#  49]+0.003*[#  54]+0.003*[#  64]+0.003*[#  74]
          +0.003*[#  89]+0.003*[#   3]+0.003*[#   8]+0.003*[#  13]+0.003*[#  18]
          +0.003*[#  23]+0.003*[#  28]+0.003*[#  34]+0.003*[#  69]+0.001*[#  35]
          +0.001*[#  40]+0.001*[#  50]+0.001*[#  55]+0.001*[#  65]+0.001*[#  70]
          +0.001*[#  75]+0.001*[#  90]
    |psi|^2 = 1.000
==== e( 106) =    -4.19574 eV ==== 
     psi = 0.092*[#  94]+0.092*[#  95]+0.092*[#  99]+0.092*[# 100]+0.055*[# 109]
          +0.055*[# 110]+0.055*[# 114]+0.055*[# 115]+0.052*[# 104]+0.052*[# 105]
          +0.052*[# 119]+0.052*[# 120]+0.006*[#   3]+0.006*[#   8]+0.006*[#  13]
          +0.006*[#  18]+0.006*[#  23]+0.006*[#  28]+0.005*[#  50]+0.005*[#  59]
          +0.005*[#  75]+0.005*[#  84]+0.004*[#  44]+0.004*[#  55]+0.004*[#  79]
          +0.004*[#  90]+0.003*[#  33]+0.003*[#  53]+0.003*[#  35]+0.003*[#  38]
          +0.003*[#  39]+0.003*[#  43]+0.003*[#  64]+0.003*[#  68]+0.003*[#  78]
          +0.003*[#  88]+0.003*[#  40]+0.003*[#  48]+0.003*[#  58]+0.003*[#  63]
          +0.003*[#  34]+0.003*[#  65]+0.003*[#  70]+0.003*[#  73]+0.003*[#  83]
          +0.003*[#  69]+0.003*[#   4]+0.003*[#   9]+0.002*[#  49]+0.002*[#  60]
          +0.002*[#  85]+0.002*[#  15]+0.002*[#  20]+0.002*[#  25]+0.002*[#  30]
          +0.002*[#  45]+0.002*[#  54]+0.002*[#  74]+0.002*[#  80]+0.002*[#  89]
          
    |psi|^2 = 1.000
==== e( 107) =    -4.19574 eV ==== 
     psi = 0.091*[#  94]+0.091*[#  95]+0.091*[#  99]+0.091*[# 100]+0.056*[# 109]
          +0.056*[# 110]+0.056*[# 114]+0.056*[# 115]+0.052*[# 104]+0.052*[# 105]
          +0.052*[# 119]+0.052*[# 120]+0.006*[#   3]+0.006*[#   8]+0.006*[#  13]
          +0.006*[#  18]+0.006*[#  23]+0.006*[#  28]+0.005*[#  50]+0.005*[#  59]
          +0.005*[#  75]+0.005*[#  84]+0.004*[#  44]+0.004*[#  55]+0.004*[#  79]
          +0.004*[#  90]+0.003*[#  33]+0.003*[#  53]+0.003*[#  35]+0.003*[#  38]
          +0.003*[#  39]+0.003*[#  43]+0.003*[#  64]+0.003*[#  68]+0.003*[#  78]
          +0.003*[#  88]+0.003*[#  40]+0.003*[#  48]+0.003*[#  58]+0.003*[#  63]
          +0.003*[#  34]+0.003*[#  65]+0.003*[#  70]+0.003*[#  73]+0.003*[#  83]
          +0.003*[#  69]+0.003*[#   4]+0.003*[#   9]+0.002*[#  49]+0.002*[#  60]
          +0.002*[#  85]+0.002*[#  15]+0.002*[#  20]+0.002*[#  25]+0.002*[#  30]
          +0.002*[#  45]+0.002*[#  54]+0.002*[#  74]+0.002*[#  80]+0.002*[#  89]
[...]
          +0.002*[# 151]+0.002*[# 159]+0.002*[# 160]+0.002*[# 168]+0.002*[# 169]
          
    |psi|^2 = 0.396
==== e( 348) =     9.47928 eV ==== 
     psi = 0.009*[# 102]+0.009*[# 107]+0.009*[# 112]+0.009*[# 117]+0.001*[#  32]
          +0.001*[#  37]+0.001*[#  42]+0.001*[#  47]+0.001*[#  52]+0.001*[#  57]
          +0.001*[#  62]+0.001*[#  67]+0.001*[#  72]+0.001*[#  77]+0.001*[#  82]
          +0.001*[#  87]
    |psi|^2 = 0.064
==== e( 349) =     9.47934 eV ==== 
     psi = 0.012*[#  92]+0.012*[#  97]+0.003*[# 102]+0.003*[# 107]+0.003*[# 112]
          +0.003*[# 117]+0.002*[#   2]+0.002*[#   7]+0.002*[#  12]+0.002*[#  17]
          +0.002*[#  22]+0.002*[#  27]
    |psi|^2 = 0.063
==== e( 350) =     9.60072 eV ==== 
     psi = 0.005*[#   2]+0.005*[#   7]+0.005*[#  12]+0.005*[#  17]+0.005*[#  22]
          +0.005*[#  27]+0.004*[#  32]+0.004*[#  37]+0.004*[#  42]+0.004*[#  47]
          +0.004*[#  52]+0.004*[#  57]+0.004*[#  62]+0.004*[#  67]+0.004*[#  72]
          +0.004*[#  77]+0.004*[#  82]+0.004*[#  87]+0.002*[# 123]+0.002*[# 124]
          +0.001*[# 132]+0.001*[# 133]
    |psi|^2 = 0.111

Lowdin Charges: 

     Atom #   1: total charge =   8.2404, s =  2.2638, 
     Atom #   1: total charge =   8.2404, p =  5.9766, pz=  1.9934, px=  1.9910, py=  1.9922, 
     Atom #   1: total charge =   8.2404, d =  0.0000, dz2=  0.0000, dxz=  0.0000, dyz=  0.0000, dx2-y2=  0.0000, dxy=  0.0000, 
     Atom #   2: total charge =   8.2404, s =  2.2638, 
     Atom #   2: total charge =   8.2404, p =  5.9766, pz=  1.9934, px=  1.9910, py=  1.9922, 
     Atom #   2: total charge =   8.2404, d =  0.0000, dz2=  0.0000, dxz=  0.0000, dyz=  0.0000, dx2-y2=  0.0000, dxy=  0.0000, 
     Atom #   3: total charge =   8.2404, s =  2.2638, 
     Atom #   3: total charge =   8.2404, p =  5.9766, pz=  1.9934, px=  1.9919, py=  1.9913, 
     Atom #   3: total charge =   8.2404, d =  0.0000, dz2=  0.0000, dxz=  0.0000, dyz=  0.0000, dx2-y2=  0.0000, dxy=  0.0000, 
     Atom #   4: total charge =   8.2404, s =  2.2638, 
     Atom #   4: total charge =   8.2404, p =  5.9766, pz=  1.9934, px=  1.9919, py=  1.9913, 
     Atom #   4: total charge =   8.2404, d =  0.0000, dz2=  0.0000, dxz=  0.0000, dyz=  0.0000, dx2-y2=  0.0000, dxy=  0.0000, 
     Atom #   5: total charge =   8.2404, s =  2.2638, 
     Atom #   5: total charge =   8.2404, p =  5.9766, pz=  1.9934, px=  1.9919, py=  1.9913, 
     Atom #   5: total charge =   8.2404, d =  0.0000, dz2=  0.0000, dxz=  0.0000, dyz=  0.0000, dx2-y2=  0.0000, dxy=  0.0000, 
     Atom #   6: total charge =   8.2404, s =  2.2638, 
     Atom #   6: total charge =   8.2404, p =  5.9766, pz=  1.9934, px=  1.9919, py=  1.9913, 
     Atom #   6: total charge =   8.2404, d =  0.0000, dz2=  0.0000, dxz=  0.0000, dyz=  0.0000, dx2-y2=  0.0000, dxy=  0.0000, 
     Atom #   7: total charge =   8.2404, s =  2.2638, 
     Atom #   7: total charge =   8.2404, p =  5.9766, pz=  1.9934, px=  1.9910, py=  1.9922, 
     Atom #   7: total charge =   8.2404, d =  0.0000, dz2=  0.0000, dxz=  0.0000, dyz=  0.0000, dx2-y2=  0.0000, dxy=  0.0000, 
     Atom #   8: total charge =   8.2404, s =  2.2638, 
     Atom #   8: total charge =   8.2404, p =  5.9766, pz=  1.9934, px=  1.9910, py=  1.9922, 
     Atom #   8: total charge =   8.2404, d =  0.0000, dz2=  0.0000, dxz=  0.0000, dyz=  0.0000, dx2-y2=  0.0000, dxy=  0.0000, 
     Atom #   9: total charge =   8.2404, s =  2.2638, 
     Atom #   9: total charge =   8.2404, p =  5.9766, pz=  1.9934, px=  1.9919, py=  1.9913, 
     Atom #   9: total charge =   8.2404, d =  0.0000, dz2=  0.0000, dxz=  0.0000, dyz=  0.0000, dx2-y2=  0.0000, dxy=  0.0000, 
     Atom #  10: total charge =   8.2404, s =  2.2638, 
     Atom #  10: total charge =   8.2404, p =  5.9766, pz=  1.9934, px=  1.9919, py=  1.9913, 
     Atom #  10: total charge =   8.2404, d =  0.0000, dz2=  0.0000, dxz=  0.0000, dyz=  0.0000, dx2-y2=  0.0000, dxy=  0.0000, 
     Atom #  11: total charge =   8.2404, s =  2.2638, 
     Atom #  11: total charge =   8.2404, p =  5.9766, pz=  1.9934, px=  1.9919, py=  1.9913, 
     Atom #  11: total charge =   8.2404, d =  0.0000, dz2=  0.0000, dxz=  0.0000, dyz=  0.0000, dx2-y2=  0.0000, dxy=  0.0000, 
     Atom #  12: total charge =   8.2404, s =  2.2638, 
     Atom #  12: total charge =   8.2404, p =  5.9766, pz=  1.9934, px=  1.9919, py=  1.9913, 
     Atom #  12: total charge =   8.2404, d =  0.0000, dz2=  0.0000, dxz=  0.0000, dyz=  0.0000, dx2-y2=  0.0000, dxy=  0.0000, 
     Atom #  13: total charge =   8.2404, s =  2.2638, 
     Atom #  13: total charge =   8.2404, p =  5.9766, pz=  1.9934, px=  1.9910, py=  1.9922, 
     Atom #  13: total charge =   8.2404, d =  0.0000, dz2=  0.0000, dxz=  0.0000, dyz=  0.0000, dx2-y2=  0.0000, dxy=  0.0000, 
     Atom #  14: total charge =   8.2404, s =  2.2638, 
     Atom #  14: total charge =   8.2404, p =  5.9766, pz=  1.9934, px=  1.9910, py=  1.9922, 
     Atom #  14: total charge =   8.2404, d =  0.0000, dz2=  0.0000, dxz=  0.0000, dyz=  0.0000, dx2-y2=  0.0000, dxy=  0.0000, 
     Atom #  15: total charge =   8.2404, s =  2.2638, 
     Atom #  15: total charge =   8.2404, p =  5.9766, pz=  1.9934, px=  1.9919, py=  1.9913, 
     Atom #  15: total charge =   8.2404, d =  0.0000, dz2=  0.0000, dxz=  0.0000, dyz=  0.0000, dx2-y2=  0.0000, dxy=  0.0000, 
     Atom #  16: total charge =   8.2404, s =  2.2638, 
     Atom #  16: total charge =   8.2404, p =  5.9766, pz=  1.9934, px=  1.9919, py=  1.9913, 
     Atom #  16: total charge =   8.2404, d =  0.0000, dz2=  0.0000, dxz=  0.0000, dyz=  0.0000, dx2-y2=  0.0000, dxy=  0.0000, 
     Atom #  17: total charge =   8.2404, s =  2.2638, 
     Atom #  17: total charge =   8.2404, p =  5.9766, pz=  1.9934, px=  1.9919, py=  1.9913, 
     Atom #  17: total charge =   8.2404, d =  0.0000, dz2=  0.0000, dxz=  0.0000, dyz=  0.0000, dx2-y2=  0.0000, dxy=  0.0000, 
     Atom #  18: total charge =   8.2404, s =  2.2638, 
     Atom #  18: total charge =   8.2404, p =  5.9766, pz=  1.9934, px=  1.9919, py=  1.9913, 
     Atom #  18: total charge =   8.2404, d =  0.0000, dz2=  0.0000, dxz=  0.0000, dyz=  0.0000, dx2-y2=  0.0000, dxy=  0.0000, 
     Atom #  19: total charge =   8.2246, s =  2.2534, 
     Atom #  19: total charge =   8.2246, p =  5.9712, pz=  1.9919, px=  1.9897, py=  1.9897, 
     Atom #  19: total charge =   8.2246, d =  0.0000, dz2=  0.0000, dxz=  0.0000, dyz=  0.0000, dx2-y2=  0.0000, dxy=  0.0000, 
     Atom #  20: total charge =   8.2246, s =  2.2534, 
     Atom #  20: total charge =   8.2246, p =  5.9712, pz=  1.9919, px=  1.9897, py=  1.9897, 
     Atom #  20: total charge =   8.2246, d =  0.0000, dz2=  0.0000, dxz=  0.0000, dyz=  0.0000, dx2-y2=  0.0000, dxy=  0.0000, 
     Atom #  21: total charge =   8.2246, s =  2.2534, 
     Atom #  21: total charge =   8.2246, p =  5.9712, pz=  1.9919, px=  1.9897, py=  1.9897, 
     Atom #  21: total charge =   8.2246, d =  0.0000, dz2=  0.0000, dxz=  0.0000, dyz=  0.0000, dx2-y2=  0.0000, dxy=  0.0000, 
     Atom #  22: total charge =   8.2246, s =  2.2534, 
     Atom #  22: total charge =   8.2246, p =  5.9712, pz=  1.9919, px=  1.9897, py=  1.9897, 
     Atom #  22: total charge =   8.2246, d =  0.0000, dz2=  0.0000, dxz=  0.0000, dyz=  0.0000, dx2-y2=  0.0000, dxy=  0.0000, 
     Atom #  23: total charge =   8.2246, s =  2.2534, 
     Atom #  23: total charge =   8.2246, p =  5.9712, pz=  1.9919, px=  1.9897, py=  1.9897, 
     Atom #  23: total charge =   8.2246, d =  0.0000, dz2=  0.0000, dxz=  0.0000, dyz=  0.0000, dx2-y2=  0.0000, dxy=  0.0000, 
     Atom #  24: total charge =   8.2246, s =  2.2534, 
     Atom #  24: total charge =   8.2246, p =  5.9712, pz=  1.9919, px=  1.9897, py=  1.9897, 
     Atom #  24: total charge =   8.2246, d =  0.0000, dz2=  0.0000, dxz=  0.0000, dyz=  0.0000, dx2-y2=  0.0000, dxy=  0.0000, 
     Atom #  25: total charge =  13.4973, s =  1.9327, 
     Atom #  25: total charge =  13.4973, p =  1.5648, pz=  0.5269, px=  0.5189, py=  0.5189, 
     Atom #  25: total charge =  13.4973, d =  9.9998, dz2=  2.0000, dxz=  1.9999, dyz=  1.9999, dx2-y2=  2.0000, dxy=  2.0000, 
     Atom #  26: total charge =  13.4973, s =  1.9327, 
     Atom #  26: total charge =  13.4973, p =  1.5648, pz=  0.5269, px=  0.5189, py=  0.5189, 
     Atom #  26: total charge =  13.4973, d =  9.9998, dz2=  2.0000, dxz=  1.9999, dyz=  1.9999, dx2-y2=  2.0000, dxy=  2.0000, 
     Atom #  27: total charge =  13.4974, s =  1.9327, 
     Atom #  27: total charge =  13.4974, p =  1.5649, pz=  0.5269, px=  0.5190, py=  0.5190, 
     Atom #  27: total charge =  13.4974, d =  9.9998, dz2=  2.0000, dxz=  1.9999, dyz=  1.9999, dx2-y2=  2.0000, dxy=  2.0000, 
     Atom #  28: total charge =  13.4973, s =  1.9327, 
     Atom #  28: total charge =  13.4973, p =  1.5648, pz=  0.5269, px=  0.5190, py=  0.5190, 
     Atom #  28: total charge =  13.4973, d =  9.9998, dz2=  2.0000, dxz=  1.9999, dyz=  1.9999, dx2-y2=  2.0000, dxy=  2.0000, 
     Atom #  29: total charge =  13.4974, s =  1.9327, 
     Atom #  29: total charge =  13.4974, p =  1.5649, pz=  0.5269, px=  0.5190, py=  0.5190, 
     Atom #  29: total charge =  13.4974, d =  9.9998, dz2=  2.0000, dxz=  1.9999, dyz=  1.9999, dx2-y2=  2.0000, dxy=  2.0000, 
     Atom #  30: total charge =  13.4973, s =  1.9327, 
     Atom #  30: total charge =  13.4973, p =  1.5648, pz=  0.5269, px=  0.5190, py=  0.5190, 
     Atom #  30: total charge =  13.4973, d =  9.9998, dz2=  2.0000, dxz=  1.9999, dyz=  1.9999, dx2-y2=  2.0000, dxy=  2.0000, 
     Atom #  31: total charge =   7.5365, s =  1.9089, 
     Atom #  31: total charge =   7.5365, p =  5.6276, pz=  1.8726, px=  1.9158, py=  1.8391, 
     Atom #  31: total charge =   7.5365, d =  0.0000, dz2=  0.0000, dxz=  0.0000, dyz=  0.0000, dx2-y2=  0.0000, dxy=  0.0000, 
     Atom #  32: total charge =   7.5365, s =  1.9089, 
     Atom #  32: total charge =   7.5365, p =  5.6276, pz=  1.8726, px=  1.9158, py=  1.8391, 
     Atom #  32: total charge =   7.5365, d =  0.0000, dz2=  0.0000, dxz=  0.0000, dyz=  0.0000, dx2-y2=  0.0000, dxy=  0.0000, 
     Atom #  33: total charge =   7.5365, s =  1.9089, 
     Atom #  33: total charge =   7.5365, p =  5.6276, pz=  1.8726, px=  1.8904, py=  1.8645, 
     Atom #  33: total charge =   7.5365, d =  0.0000, dz2=  0.0000, dxz=  0.0000, dyz=  0.0000, dx2-y2=  0.0000, dxy=  0.0000, 
     Atom #  34: total charge =   7.5365, s =  1.9089, 
     Atom #  34: total charge =   7.5365, p =  5.6276, pz=  1.8726, px=  1.8904, py=  1.8645, 
     Atom #  34: total charge =   7.5365, d =  0.0000, dz2=  0.0000, dxz=  0.0000, dyz=  0.0000, dx2-y2=  0.0000, dxy=  0.0000, 
     Atom #  35: total charge =   7.5365, s =  1.9089, 
     Atom #  35: total charge =   7.5365, p =  5.6276, pz=  1.8726, px=  1.8262, py=  1.9288, 
     Atom #  35: total charge =   7.5365, d =  0.0000, dz2=  0.0000, dxz=  0.0000, dyz=  0.0000, dx2-y2=  0.0000, dxy=  0.0000, 
     Atom #  36: total charge =   7.5365, s =  1.9089, 
     Atom #  36: total charge =   7.5365, p =  5.6276, pz=  1.8726, px=  1.8262, py=  1.9288, 
     Atom #  36: total charge =   7.5365, d =  0.0000, dz2=  0.0000, dxz=  0.0000, dyz=  0.0000, dx2-y2=  0.0000, dxy=  0.0000, 
     Atom #  37: total charge =   7.5365, s =  1.9089, 
     Atom #  37: total charge =   7.5365, p =  5.6277, pz=  1.8727, px=  1.8262, py=  1.9288, 
     Atom #  37: total charge =   7.5365, d =  0.0000, dz2=  0.0000, dxz=  0.0000, dyz=  0.0000, dx2-y2=  0.0000, dxy=  0.0000, 
     Atom #  38: total charge =   7.5365, s =  1.9089, 
     Atom #  38: total charge =   7.5365, p =  5.6277, pz=  1.8727, px=  1.8262, py=  1.9288, 
     Atom #  38: total charge =   7.5365, d =  0.0000, dz2=  0.0000, dxz=  0.0000, dyz=  0.0000, dx2-y2=  0.0000, dxy=  0.0000, 
     Atom #  39: total charge =   7.5365, s =  1.9089, 
     Atom #  39: total charge =   7.5365, p =  5.6277, pz=  1.8727, px=  1.9158, py=  1.8392, 
     Atom #  39: total charge =   7.5365, d =  0.0000, dz2=  0.0000, dxz=  0.0000, dyz=  0.0000, dx2-y2=  0.0000, dxy=  0.0000, 
     Atom #  40: total charge =   7.5365, s =  1.9089, 
     Atom #  40: total charge =   7.5365, p =  5.6277, pz=  1.8727, px=  1.9158, py=  1.8392, 
     Atom #  40: total charge =   7.5365, d =  0.0000, dz2=  0.0000, dxz=  0.0000, dyz=  0.0000, dx2-y2=  0.0000, dxy=  0.0000, 
     Atom #  41: total charge =   7.5365, s =  1.9089, 
     Atom #  41: total charge =   7.5365, p =  5.6277, pz=  1.8727, px=  1.8905, py=  1.8645, 
     Atom #  41: total charge =   7.5365, d =  0.0000, dz2=  0.0000, dxz=  0.0000, dyz=  0.0000, dx2-y2=  0.0000, dxy=  0.0000, 
     Atom #  42: total charge =   7.5365, s =  1.9089, 
     Atom #  42: total charge =   7.5365, p =  5.6277, pz=  1.8727, px=  1.8905, py=  1.8645, 
     Atom #  42: total charge =   7.5365, d =  0.0000, dz2=  0.0000, dxz=  0.0000, dyz=  0.0000, dx2-y2=  0.0000, dxy=  0.0000, 
     Atom #  43: total charge =   7.5365, s =  1.9089, 
     Atom #  43: total charge =   7.5365, p =  5.6277, pz=  1.8727, px=  1.9158, py=  1.8392, 
     Atom #  43: total charge =   7.5365, d =  0.0000, dz2=  0.0000, dxz=  0.0000, dyz=  0.0000, dx2-y2=  0.0000, dxy=  0.0000, 
     Atom #  44: total charge =   7.5365, s =  1.9089, 
     Atom #  44: total charge =   7.5365, p =  5.6276, pz=  1.8727, px=  1.9158, py=  1.8392, 
     Atom #  44: total charge =   7.5365, d =  0.0000, dz2=  0.0000, dxz=  0.0000, dyz=  0.0000, dx2-y2=  0.0000, dxy=  0.0000, 
     Atom #  45: total charge =   7.5365, s =  1.9089, 
     Atom #  45: total charge =   7.5365, p =  5.6277, pz=  1.8727, px=  1.8905, py=  1.8645, 
     Atom #  45: total charge =   7.5365, d =  0.0000, dz2=  0.0000, dxz=  0.0000, dyz=  0.0000, dx2-y2=  0.0000, dxy=  0.0000, 
     Atom #  46: total charge =   7.5365, s =  1.9089, 
     Atom #  46: total charge =   7.5365, p =  5.6276, pz=  1.8727, px=  1.8905, py=  1.8645, 
     Atom #  46: total charge =   7.5365, d =  0.0000, dz2=  0.0000, dxz=  0.0000, dyz=  0.0000, dx2-y2=  0.0000, dxy=  0.0000, 
     Atom #  47: total charge =   7.5365, s =  1.9089, 
     Atom #  47: total charge =   7.5365, p =  5.6277, pz=  1.8727, px=  1.8262, py=  1.9288, 
     Atom #  47: total charge =   7.5365, d =  0.0000, dz2=  0.0000, dxz=  0.0000, dyz=  0.0000, dx2-y2=  0.0000, dxy=  0.0000, 
     Atom #  48: total charge =   7.5365, s =  1.9089, 
     Atom #  48: total charge =   7.5365, p =  5.6276, pz=  1.8727, px=  1.8262, py=  1.9288, 
     Atom #  48: total charge =   7.5365, d =  0.0000, dz2=  0.0000, dxz=  0.0000, dyz=  0.0000, dx2-y2=  0.0000, dxy=  0.0000, 
     Atom #  49: total charge =   7.5365, s =  1.9089, 
     Atom #  49: total charge =   7.5365, p =  5.6276, pz=  1.8727, px=  1.8262, py=  1.9288, 
     Atom #  49: total charge =   7.5365, d =  0.0000, dz2=  0.0000, dxz=  0.0000, dyz=  0.0000, dx2-y2=  0.0000, dxy=  0.0000, 
     Atom #  50: total charge =   7.5365, s =  1.9089, 
     Atom #  50: total charge =   7.5365, p =  5.6276, pz=  1.8726, px=  1.8262, py=  1.9288, 
     Atom #  50: total charge =   7.5365, d =  0.0000, dz2=  0.0000, dxz=  0.0000, dyz=  0.0000, dx2-y2=  0.0000, dxy=  0.0000, 
     Atom #  51: total charge =   7.5365, s =  1.9089, 
     Atom #  51: total charge =   7.5365, p =  5.6276, pz=  1.8727, px=  1.9158, py=  1.8392, 
     Atom #  51: total charge =   7.5365, d =  0.0000, dz2=  0.0000, dxz=  0.0000, dyz=  0.0000, dx2-y2=  0.0000, dxy=  0.0000, 
     Atom #  52: total charge =   7.5365, s =  1.9089, 
     Atom #  52: total charge =   7.5365, p =  5.6276, pz=  1.8726, px=  1.9158, py=  1.8392, 
     Atom #  52: total charge =   7.5365, d =  0.0000, dz2=  0.0000, dxz=  0.0000, dyz=  0.0000, dx2-y2=  0.0000, dxy=  0.0000, 
     Atom #  53: total charge =   7.5365, s =  1.9089, 
     Atom #  53: total charge =   7.5365, p =  5.6276, pz=  1.8727, px=  1.8904, py=  1.8645, 
     Atom #  53: total charge =   7.5365, d =  0.0000, dz2=  0.0000, dxz=  0.0000, dyz=  0.0000, dx2-y2=  0.0000, dxy=  0.0000, 
     Atom #  54: total charge =   7.5365, s =  1.9089, 
     Atom #  54: total charge =   7.5365, p =  5.6276, pz=  1.8726, px=  1.8904, py=  1.8645, 
     Atom #  54: total charge =   7.5365, d =  0.0000, dz2=  0.0000, dxz=  0.0000, dyz=  0.0000, dx2-y2=  0.0000, dxy=  0.0000, 
     Atom #  55: total charge =   7.5365, s =  1.9089, 
     Atom #  55: total charge =   7.5365, p =  5.6276, pz=  1.8727, px=  1.9158, py=  1.8392, 
     Atom #  55: total charge =   7.5365, d =  0.0000, dz2=  0.0000, dxz=  0.0000, dyz=  0.0000, dx2-y2=  0.0000, dxy=  0.0000, 
     Atom #  56: total charge =   7.5365, s =  1.9089, 
     Atom #  56: total charge =   7.5365, p =  5.6277, pz=  1.8727, px=  1.9158, py=  1.8392, 
     Atom #  56: total charge =   7.5365, d =  0.0000, dz2=  0.0000, dxz=  0.0000, dyz=  0.0000, dx2-y2=  0.0000, dxy=  0.0000, 
     Atom #  57: total charge =   7.5365, s =  1.9089, 
     Atom #  57: total charge =   7.5365, p =  5.6276, pz=  1.8727, px=  1.8905, py=  1.8645, 
     Atom #  57: total charge =   7.5365, d =  0.0000, dz2=  0.0000, dxz=  0.0000, dyz=  0.0000, dx2-y2=  0.0000, dxy=  0.0000, 
     Atom #  58: total charge =   7.5365, s =  1.9089, 
     Atom #  58: total charge =   7.5365, p =  5.6277, pz=  1.8727, px=  1.8905, py=  1.8645, 
     Atom #  58: total charge =   7.5365, d =  0.0000, dz2=  0.0000, dxz=  0.0000, dyz=  0.0000, dx2-y2=  0.0000, dxy=  0.0000, 
     Atom #  59: total charge =   7.5365, s =  1.9089, 
     Atom #  59: total charge =   7.5365, p =  5.6276, pz=  1.8727, px=  1.8262, py=  1.9288, 
     Atom #  59: total charge =   7.5365, d =  0.0000, dz2=  0.0000, dxz=  0.0000, dyz=  0.0000, dx2-y2=  0.0000, dxy=  0.0000, 
     Atom #  60: total charge =   7.5365, s =  1.9089, 
     Atom #  60: total charge =   7.5365, p =  5.6277, pz=  1.8727, px=  1.8262, py=  1.9288, 
     Atom #  60: total charge =   7.5365, d =  0.0000, dz2=  0.0000, dxz=  0.0000, dyz=  0.0000, dx2-y2=  0.0000, dxy=  0.0000, 
     Atom #  61: total charge =   7.5365, s =  1.9089, 
     Atom #  61: total charge =   7.5365, p =  5.6276, pz=  1.8726, px=  1.8262, py=  1.9288, 
     Atom #  61: total charge =   7.5365, d =  0.0000, dz2=  0.0000, dxz=  0.0000, dyz=  0.0000, dx2-y2=  0.0000, dxy=  0.0000, 
     Atom #  62: total charge =   7.5365, s =  1.9089, 
     Atom #  62: total charge =   7.5365, p =  5.6276, pz=  1.8727, px=  1.8262, py=  1.9288, 
     Atom #  62: total charge =   7.5365, d =  0.0000, dz2=  0.0000, dxz=  0.0000, dyz=  0.0000, dx2-y2=  0.0000, dxy=  0.0000, 
     Atom #  63: total charge =   7.5365, s =  1.9089, 
     Atom #  63: total charge =   7.5365, p =  5.6276, pz=  1.8726, px=  1.9158, py=  1.8392, 
     Atom #  63: total charge =   7.5365, d =  0.0000, dz2=  0.0000, dxz=  0.0000, dyz=  0.0000, dx2-y2=  0.0000, dxy=  0.0000, 
     Atom #  64: total charge =   7.5365, s =  1.9089, 
     Atom #  64: total charge =   7.5365, p =  5.6276, pz=  1.8727, px=  1.9158, py=  1.8392, 
     Atom #  64: total charge =   7.5365, d =  0.0000, dz2=  0.0000, dxz=  0.0000, dyz=  0.0000, dx2-y2=  0.0000, dxy=  0.0000, 
     Atom #  65: total charge =   7.5365, s =  1.9089, 
     Atom #  65: total charge =   7.5365, p =  5.6276, pz=  1.8726, px=  1.8904, py=  1.8645, 
     Atom #  65: total charge =   7.5365, d =  0.0000, dz2=  0.0000, dxz=  0.0000, dyz=  0.0000, dx2-y2=  0.0000, dxy=  0.0000, 
     Atom #  66: total charge =   7.5365, s =  1.9089, 
     Atom #  66: total charge =   7.5365, p =  5.6276, pz=  1.8727, px=  1.8904, py=  1.8645, 
     Atom #  66: total charge =   7.5365, d =  0.0000, dz2=  0.0000, dxz=  0.0000, dyz=  0.0000, dx2-y2=  0.0000, dxy=  0.0000, 
     Spilling Parameter:   0.0037

     PROJWFC      :     40.49s CPU     51.99s WALL


   This run was terminated on:   1: 7:40  25May2021            

=------------------------------------------------------------------------------=
   JOB DONE.
=------------------------------------------------------------------------------=
