       6
 i =       30, time =       30.000, E =      -180.8463484884
 Ti         2.2075944212        2.4274410382        1.4004879587
 Ti        -0.0503211590       -0.0069890580       -0.1101565927
  O         0.8879539701        3.6726619352        1.6880921695
  O         3.9294358967        0.8392299369        1.5406055402
  O         1.6912281550        1.3586520248        0.1588365294
  O         3.2947581269        3.1807608791        0.2109581487
