       6
 i =       40, time =       40.000, E =      -180.8141614520
 Ti         2.1523813930        2.4552487641        1.3998437704
 Ti        -0.0876827972       -0.0009361909       -0.1474509610
  O         1.0181642563        3.5458531648        1.8499625205
  O         3.9481833694        0.8764026026        1.5384640683
  O         1.6666004133        1.2672236789        0.1403152553
  O         3.4294389554        3.2731799146        0.2274023679
