       6
 i =       26, time =       26.000, E =      -180.8379861909
 Ti         2.2408990271        2.4006643661        1.3978926145
 Ti        -0.0479806620        0.0073619381       -0.0960018895
  O         0.8137129406        3.7434164050        1.6232535995
  O         3.9667543464        0.7729256202        1.5547974894
  O         1.7120771243        1.4431131544        0.1608571518
  O         3.2089559603        3.1240704505        0.2092634500
