       6
 i =       42, time =       42.000, E =      -180.8174334507
 Ti         2.1495691951        2.4494595182        1.3971383907
 Ti        -0.1008786938        0.0105098541       -0.1524838553
  O         1.0255317943        3.5350746096        1.8823179331
  O         3.9706904688        0.8592492725        1.5370655079
  O         1.6701117038        1.2749412673        0.1368907475
  O         3.4399266963        3.2793014755        0.2331499102
