       6
 i =       44, time =       44.000, E =      -180.8231515736
 Ti         2.1495229773        2.4398448910        1.3939517492
 Ti        -0.1149504243        0.0245220363       -0.1552276799
  O         1.0263606404        3.5289320068        1.9145434704
  O         3.9960099670        0.8379856459        1.5310232197
  O         1.6763492609        1.2906399669        0.1330607719
  O         3.4453740158        3.2811109414        0.2392179183
