       6
 i =       46, time =       46.000, E =      -180.8285399514
 Ti         2.1518942144        2.4269061609        1.3907035981
 Ti        -0.1291512380        0.0400913067       -0.1549086609
  O         1.0215744801        3.5263061712        1.9466546820
  O         4.0216376211        0.8154653308        1.5179432215
  O         1.6851382046        1.3139196090        0.1282414022
  O         3.4461297916        3.2787182225        0.2454679698
