       6
 i =       47, time =       47.000, E =      -180.8302952872
 Ti         2.1537623276        2.4197430255        1.3892910394
 Ti        -0.1357401815        0.0477042582       -0.1534813812
  O         1.0176585239        3.5259289202        1.9616794668
  O         4.0331059832        0.8052230935        1.5085458749
  O         1.6901786847        1.3274410658        0.1253460844
  O         3.4449275669        3.2761679037        0.2484967357
