      56
 i =      129, time =      129.000, E =      -152.8251626294
  C         0.6212092605        0.6696932834        7.4132043603
  C         1.7561783234        2.6750093296        7.1913602603
  C         5.3888263606        0.6703293209        7.2869825716
  C         4.1880046616        2.7089610640        7.2722724987
  C         7.7797015501        0.6694476226        7.6485221744
  C         6.5355374713        2.7585204521        7.3909580260
  C         8.9376018925        2.7449246724        7.5180078062
  C        12.4337452691        0.6407607912        7.1377870770
  C        11.3069563163        2.6801103516        7.2107573704
  C        13.6607925364        2.6684139288        6.9997331121
  C         2.9523838702        4.8380583752        7.2915085939
  C         1.7199053830        6.8027626128        7.3446706530
  C         0.6504340301        8.8346134226        7.6126325620
  C         4.1718366083        6.8855337952        7.6073007287
  C         2.9789436692        8.8689665590        7.7868909830
  C         5.2895353814        8.9006074814        7.8122496002
  C        10.1180814962        4.9306698026        7.5918203943
  C         8.9635757336        6.8617601219        7.7428913649
  C         7.7838742795        8.9056904824        7.7770699388
  C         6.4949924857       11.0326309693        7.6788494331
  C        11.3474034132        6.8514844257        7.7832145542
  C        10.1166933420        8.9326918682        7.6237303785
  C        12.4154759663        8.8978298749        7.6687573751
  C        13.5985842695       10.9882825656        7.5102088433
  N         5.3766368780       11.6492303544        7.3692413650
  N         6.5373121700        9.6026531536        7.7770631828
  N         7.8119870788        7.5475823056        7.7934868584
  N         8.9739361132        5.5453903853        7.7426895562
  N         7.6757514375       11.6573552410        7.7613885570
  N         8.9507695105        9.6015560130        7.6448378252
  N        10.1284735611        7.5760329880        7.7107046439
  N        11.3135731004        5.4817175470        7.6744680171
  N        11.2626123383        9.5596013415        7.4910633579
  N        12.4490517115        7.5801340764        7.9174856616
  N        13.6337842340        9.6072108669        7.6268873029
  N        12.4802119654       11.6534550065        7.2152982906
  N         0.5819796317        3.2777498413        6.8476626718
  N         1.7515783364        1.3988848804        7.5041423191
  N         2.9590076018        3.4557935496        7.2513774016
  N         5.3428138794        3.3609750139        7.3092541826
  N         7.7473384679        3.4239902037        7.4280213827
  N         8.9382893226        1.3733392880        7.7331654797
  N         6.5755525909        1.3626186882        7.5136398058
  N         4.2257074298        1.3669432922        7.1737028809
  N        10.1448581643        3.3977081036        7.4899478619
  N        11.3000158609        1.2830903712        7.1750999363
  N        12.4482668137        3.2651951189        7.0216535711
  N        13.6607545369        1.3350016481        7.1351925976
  N         5.2659212892        7.5608416680        7.7557970587
  N         4.1580033473        9.5601395746        7.9464734379
  N         0.5511708468       11.6897846789        7.6270405266
  N         1.7834288503        9.4934051789        7.9283265899
  N         2.9742178929        7.5238557487        7.4995986824
  N         4.1082388243        5.5191421234        7.5652618100
  N         1.7531494647        5.4862623337        7.2062849716
  N         0.5769784015        7.5405893310        7.2591722517
