      56
 i =      135, time =      135.000, E =      -152.8182971337
  C         0.6160747382        0.6326467580        7.4082655967
  C         1.7033726066        2.6679122978        7.1897472062
  C         5.3700032675        0.6728376743        7.3400255728
  C         4.2227213796        2.6916032863        7.2530957404
  C         7.8017145421        0.6509846549        7.6867041306
  C         6.5707996190        2.7808094068        7.3635115509
  C         8.9135475082        2.6771725456        7.5131445480
  C        12.4267358417        0.6642278619        7.1387904384
  C        11.3527811488        2.6507938184        7.2184381190
  C        13.7050551323        2.6863497048        6.9851203340
  C         2.9598386117        4.8882245846        7.2832757945
  C         1.7146641058        6.7888575131        7.3220309999
  C         0.6839260525        8.8166282926        7.6642016728
  C         4.1457356561        6.8969640828        7.5979920056
  C         2.9673259462        8.8977737726        7.8338931074
  C         5.2534430867        8.8844407969        7.8210019711
  C        10.1059889976        4.9150366591        7.5975166159
  C         8.9489384048        6.8836201066        7.7663706895
  C         7.8199464206        8.8571836599        7.7838363801
  C         6.5149307028       11.0432244142        7.6955327300
  C        11.3243017497        6.8819692040        7.7461854392
  C        10.1164623010        8.9634755495        7.6559885247
  C        12.3711117799        8.8810579001        7.6687361840
  C        13.6023739768       11.0354669588        7.4897285698
  N         5.3229897176       11.6407603457        7.3705321982
  N         6.5428247290        9.5764065266        7.7583658711
  N         7.7644748872        7.5412523212        7.7965867537
  N         8.9749099098        5.5489650465        7.7442446132
  N         7.6830226846       11.6559002916        7.7942938341
  N         8.9698159609        9.5968616614        7.6464699901
  N        10.1227452466        7.5747206344        7.7165080081
  N        11.3135810543        5.5141194892        7.7259141739
  N        11.2710827945        9.5850679717        7.4939211035
  N        12.4624790534        7.5704656147        7.8715203392
  N        13.6406829099        9.5970532561        7.6578222742
  N        12.4634167797       11.6356555014        7.2374429501
  N         0.6286377812        3.3020287608        6.8511860119
  N         1.8037551684        1.4038721471        7.4807771762
  N         2.9271315236        3.4391079238        7.2176471824
  N         5.3499769030        3.3876365704        7.2969195316
  N         7.7510054909        3.4748339324        7.4054991010
  N         8.9628819786        1.3307260854        7.7358420971
  N         6.6035502675        1.3456354865        7.4825175154
  N         4.2177039773        1.3752874672        7.1395491016
  N        10.1328213805        3.3894637631        7.4807866682
  N        11.2904536375        1.2550980111        7.1598675759
  N        12.4492320765        3.3167968207        7.0215881604
  N        13.6690708417        1.3170084240        7.1489071886
  N         5.2959563541        7.5595890218        7.7699741994
  N         4.1287393412        9.5656134723        7.9413668396
  N         0.5573729399       11.6770412077        7.6249623679
  N         1.7914308220        9.4950540611        7.8986165079
  N         2.9316291690        7.5396099969        7.5341746726
  N         4.0820761297        5.5233382989        7.5271283915
  N         1.7604998378        5.4748969410        7.1812668177
  N         0.5741169032        7.5346444422        7.2788277937
