      56
 i =      108, time =      108.000, E =      -152.8198360012
  C         0.5788715021        0.6580409717        7.4548576211
  C         1.6522277026        2.6541224854        7.2164788618
  C         5.3405177791        0.6807630808        7.3310932683
  C         4.2849067036        2.6573944885        7.3157178057
  C         7.6789280780        0.7357481724        7.6246748006
  C         6.4976660999        2.7310206854        7.5014526204
  C         8.7926472856        2.7274101762        7.5905511871
  C        12.3988401773        0.6137218041        7.1806206142
  C        11.3541439061        2.7084385920        7.2337684332
  C        13.6480003195        2.7001021270        6.9791382133
  C         2.9529149947        4.8717608203        7.4374799772
  C         1.8064527969        6.8832492400        7.3188244940
  C         0.6893983059        8.8697623045        7.5277930518
  C         4.1804431985        6.8209365502        7.6132130878
  C         2.9423859804        8.9017506266        7.7437777927
  C         5.2350646807        8.8284016420        7.7851491040
  C        10.1567969786        4.8803036772        7.6040807134
  C         8.9475776667        6.8193434854        7.7157221542
  C         7.8069805031        8.8880275163        7.7188268261
  C         6.5933210843       11.1004854533        7.5674481278
  C        11.3434388002        6.8508250841        7.8054293176
  C        10.1199668195        8.8983025981        7.5862377508
  C        12.3835462813        8.8233095860        7.6907598482
  C        13.6698724687       11.0335445157        7.4316758419
  N         5.4151816988       11.6828713609        7.3131574299
  N         6.5462607692        9.6215720627        7.8143631154
  N         7.7859119144        7.5718377779        7.7855723922
  N         8.9914704950        5.4967345271        7.6982802246
  N         7.7554061076       11.7701907909        7.6928493411
  N         8.9900012794        9.5745542752        7.6138189690
  N        10.1307029816        7.5047709069        7.6804313057
  N        11.3597084102        5.5269852958        7.5942347831
  N        11.2552062764        9.5258265150        7.4894744545
  N        12.4864505546        7.5491771434        7.9991394952
  N        13.6831578795        9.5952046181        7.5318974678
  N        12.4949638155       11.6336569161        7.2040417224
  N         0.5581844748        3.3487157672        6.9001036229
  N         1.6763593659        1.3957643273        7.5650350864
  N         2.9516982906        3.3727301664        7.3062175827
  N         5.3957941652        3.3949426726        7.3679691993
  N         7.6383159679        3.4178214316        7.4411446973
  N         8.8204274768        1.3940669591        7.6772976787
  N         6.5102007969        1.3552060237        7.4990806969
  N         4.1859440237        1.3386692150        7.2456601346
  N        10.0791071648        3.4244254042        7.4544738016
  N        11.2937732973        1.3122534029        7.2187980474
  N        12.4643273185        3.4026452646        7.0106237887
  N        13.6100886960        1.3025381470        7.1574949709
  N         5.3377491686        7.4914124221        7.6870248630
  N         4.0947515821        9.5123974580        7.9092256679
  N         0.6037847543       11.6931710443        7.6552951773
  N         1.7832756605        9.4751562416        7.9100886549
  N         2.9973461253        7.5332322132        7.4475798741
  N         4.1514828967        5.4648897538        7.6235482834
  N         1.8455853757        5.5472293401        7.2952587952
  N         0.6819765295        7.5760269820        7.2433162950
