      56
 i =      107, time =      107.000, E =      -152.8191480645
  C         0.5818485057        0.6572315432        7.4583148759
  C         1.6596054253        2.6498239813        7.2240497057
  C         5.3359716241        0.6747098399        7.3395549006
  C         4.2784226302        2.6623770462        7.3180523790
  C         7.6773119852        0.7354807528        7.6263072684
  C         6.4956367429        2.7346614610        7.5026326457
  C         8.7918439721        2.7309441005        7.5898327630
  C        12.3909891423        0.6116332411        7.1828221231
  C        11.3555183381        2.7145734755        7.2366819273
  C        13.6504903255        2.7061973000        6.9777253897
  C         2.9548178307        4.8594088846        7.4433254316
  C         1.8087631019        6.8797179948        7.3150806698
  C         0.6895996326        8.8669687423        7.5283550390
  C         4.1842947987        6.8228560185        7.6119865423
  C         2.9394509373        8.8984607815        7.7451755614
  C         5.2325881022        8.8255505408        7.7834605830
  C        10.1581663687        4.8854392929        7.6025291061
  C         8.9449715979        6.8165393187        7.7160966651
  C         7.8084660277        8.8899783269        7.7176939925
  C         6.5933239506       11.1021211199        7.5635671912
  C        11.3438078831        6.8521454081        7.8011623023
  C        10.1209071576        8.8980088514        7.5890221737
  C        12.3860228484        8.8243576038        7.6903091711
  C        13.6649581516       11.0247263758        7.4248945052
  N         5.4156692055       11.6774191581        7.3099406477
  N         6.5484003616        9.6212330375        7.8114303655
  N         7.7831527354        7.5597002927        7.7843337612
  N         8.9921270545        5.4976024690        7.6966824623
  N         7.7594329710       11.7685169150        7.6906555068
  N         8.9963485774        9.5731355333        7.6101129153
  N        10.1246680865        7.5076020221        7.6790305505
  N        11.3581765513        5.5250214286        7.5966187529
  N        11.2556860078        9.5237509473        7.4892862616
  N        12.4887835876        7.5453316350        7.9994498595
  N        13.6836738561        9.5970045052        7.5287590682
  N        12.4947447469       11.6335880606        7.2057425385
  N         0.5525317850        3.3543853098        6.9028061442
  N         1.6729264165        1.3974502934        7.5651472656
  N         2.9459753606        3.3729482767        7.3069878460
  N         5.3925317782        3.3963379939        7.3713136447
  N         7.6374906113        3.4290849323        7.4426096771
  N         8.8221965997        1.3897809012        7.6759582290
  N         6.5068920186        1.3554726739        7.4964602026
  N         4.1828882507        1.3391541813        7.2467629330
  N        10.0758947657        3.4143211809        7.4512763816
  N        11.2937335486        1.3113330759        7.2210086209
  N        12.4661585631        3.4076632943        7.0101714482
  N        13.6094124156        1.3113862181        7.1591882035
  N         5.3373579481        7.4870139266        7.6839765602
  N         4.0959817157        9.5121988795        7.9065248601
  N         0.6111210634       11.6922229791        7.6573209956
  N         1.7871254377        9.4833977274        7.9063547918
  N         3.0051323784        7.5369358192        7.4490397035
  N         4.1546535439        5.4702493377        7.6258144571
  N         1.8468617516        5.5509460121        7.2988021098
  N         0.6829821727        7.5755093996        7.2410447488
