      56
 i =      105, time =      105.000, E =      -152.8172980817
  C         0.5852913258        0.6555920430        7.4650381026
  C         1.6772776436        2.6453402558        7.2395762514
  C         5.3258285337        0.6601716432        7.3564206655
  C         4.2585150023        2.6748432146        7.3229433553
  C         7.6784912135        0.7338375794        7.6296344082
  C         6.4959586335        2.7436092523        7.5032892120
  C         8.7912726352        2.7383228565        7.5860790707
  C        12.3784020807        0.6101771311        7.1873955719
  C        11.3563608879        2.7235737041        7.2424049912
  C        13.6522294498        2.7183919765        6.9757914804
  C         2.9618158227        4.8326637246        7.4542145032
  C         1.8144532139        6.8712310497        7.3079492049
  C         0.6873977090        8.8614505933        7.5302346872
  C         4.1918690296        6.8240187361        7.6088312047
  C         2.9363652157        8.8897813263        7.7481937807
  C         5.2317593006        8.8213546041        7.7795297202
  C        10.1618925872        4.8933658445        7.5978916724
  C         8.9366284467        6.8144769248        7.7170045219
  C         7.8124842236        8.8941626372        7.7158288139
  C         6.5929930052       11.1016024161        7.5570365901
  C        11.3448265880        6.8529432926        7.7915374263
  C        10.1203100940        8.8965198465        7.5954671956
  C        12.3943141236        8.8311191654        7.6881180060
  C        13.6559317337       11.0072815479        7.4122756182
  N         5.4167694206       11.6659261764        7.3038992156
  N         6.5529218973        9.6203688994        7.8033866295
  N         7.7797984791        7.5335312285        7.7813990498
  N         8.9926455153        5.4993750620        7.6938778886
  N         7.7643029011       11.7603171345        7.6863094085
  N         9.0050873946        9.5694281933        7.6024758898
  N        10.1139751299        7.5137483502        7.6766063269
  N        11.3526894595        5.5208566671        7.6034118470
  N        11.2615302212        9.5187921948        7.4891202896
  N        12.4912998882        7.5372373124        7.9984891199
  N        13.6827778220        9.5992046236        7.5228059917
  N        12.4953002121       11.6307674543        7.2096573106
  N         0.5423979266        3.3650430397        6.9088125305
  N         1.6673492504        1.3999515121        7.5655828542
  N         2.9357100768        3.3754746382        7.3089630226
  N         5.3811683677        3.3985089539        7.3783054665
  N         7.6383652802        3.4497863477        7.4470280965
  N         8.8266654771        1.3849883227        7.6736476050
  N         6.4980995153        1.3589458009        7.4915266479
  N         4.1781327845        1.3408705072        7.2491137049
  N        10.0714927165        3.3955385067        7.4450796259
  N        11.2923205385        1.3138580405        7.2257308437
  N        12.4699780850        3.4149629079        7.0094380368
  N        13.6096978908        1.3312076348        7.1629614062
  N         5.3353952764        7.4807921674        7.6782872465
  N         4.1010098320        9.5125050680        7.9011737531
  N         0.6226645686       11.6890018276        7.6601670507
  N         1.7945613104        9.5028189302        7.8982875984
  N         3.0206584820        7.5447267329        7.4528602272
  N         4.1591177853        5.4825214626        7.6301800828
  N         1.8473535773        5.5570640025        7.3056185544
  N         0.6838553755        7.5736577716        7.2357827011
