      56
 i =      130, time =      130.000, E =      -152.8258848487
  C         0.6204467822        0.6635902497        7.4122221097
  C         1.7475408101        2.6729098040        7.1917176704
  C         5.3873831399        0.6709762889        7.2951233273
  C         4.1931343778        2.7065207869        7.2696305482
  C         7.7834480725        0.6658128724        7.6544513741
  C         6.5391309994        2.7621115519        7.3854415198
  C         8.9394804981        2.7362162826        7.5160662538
  C        12.4297503205        0.6463957450        7.1370490233
  C        11.3143522352        2.6795185529        7.2117469758
  C        13.6705746367        2.6708374830        6.9979535562
  C         2.9529239803        4.8438490282        7.2887267341
  C         1.7184090996        6.7984916589        7.3414321779
  C         0.6575299499        8.8311443863        7.6220799742
  C         4.1697190982        6.8927579794        7.6059495531
  C         2.9777276740        8.8723917166        7.7946605799
  C         5.2819679971        8.8984902692        7.8137974821
  C        10.1119058925        4.9326073054        7.5920980011
  C         8.9641309855        6.8631721468        7.7464945610
  C         7.7881579939        8.8969389797        7.7794070787
  C         6.4971264368       11.0346730390        7.6829966370
  C        11.3436827876        6.8577462837        7.7768237224
  C        10.1187505555        8.9371875601        7.6294393484
  C        12.4073138338        8.8942279149        7.6687624356
  C        13.5969449667       10.9926746141        7.5075711166
  N         5.3669569223       11.6454199344        7.3692609442
  N         6.5388224466        9.5983958933        7.7735462197
  N         7.8033592887        7.5461815990        7.7937147157
  N         8.9753926046        5.5463085186        7.7434185314
  N         7.6765363435       11.6554780270        7.7662683772
  N         8.9558944371        9.6025964901        7.6446221871
  N        10.1259351726        7.5782535227        7.7116355893
  N        11.3144621535        5.4840715627        7.6831059756
  N        11.2623415606        9.5636341232        7.4911165853
  N        12.4523205467        7.5796410400        7.9103465699
  N        13.6346503876        9.6072691885        7.6321701139
  N        12.4767641449       11.6515606304        7.2186577157
  N         0.5910951881        3.2796902080        6.8479008416
  N         1.7617601033        1.4025958041        7.4997522802
  N         2.9519205581        3.4553518630        7.2459194054
  N         5.3415496070        3.3645592206        7.3069798574
  N         7.7484211652        3.4364075529        7.4248503641
  N         8.9449211104        1.3647039482        7.7345406484
  N         6.5812577304        1.3585704716        7.5094414600
  N         4.2232495629        1.3696686097        7.1676896225
  N        10.1431380558        3.3930582227        7.4889363128
  N        11.3000235205        1.2745825042        7.1726505945
  N        12.4449342309        3.2711625008        7.0218961955
  N        13.6618455365        1.3331275769        7.1367953014
  N         5.2692513095        7.5608993547        7.7584945897
  N         4.1558066302        9.5615838123        7.9458644282
  N         0.5526619563       11.6877711510        7.6269383027
  N         1.7844938011        9.4941893875        7.9234822927
  N         2.9689697368        7.5260290916        7.5049760710
  N         4.1041084615        5.5193155905        7.5596251098
  N         1.7537517337        5.4828950239        7.2021220412
  N         0.5736955816        7.5392654058        7.2613369658
