      56
 i =       77, time =       77.000, E =      -152.8324958315
  C         0.5874399668        0.7270808037        7.4708417894
  C         1.6954639327        2.7155736261        7.3701328172
  C         5.3645931076        0.6690733066        7.3554974003
  C         4.1641905275        2.6428262174        7.4242752116
  C         7.6870430340        0.7001068511        7.5948364050
  C         6.4726115160        2.7676089928        7.4609534209
  C         8.8064313725        2.7567029093        7.4684307891
  C        12.4637719027        0.6812829939        7.2554404102
  C        11.3079648814        2.6883881182        7.2250193180
  C        13.6202089052        2.7617689787        7.1260071535
  C         2.9845187185        4.8891822911        7.4355763555
  C         1.7915034700        6.8264613274        7.3712363306
  C         0.7634911684        8.8386292717        7.4961951249
  C         4.2006979020        6.8569451060        7.6133082917
  C         3.0693853499        8.9453336502        7.7194566995
  C         5.3588919980        8.8343537835        7.6742129138
  C        10.1173811299        4.8904283453        7.5713441229
  C         8.9520434914        6.8231124470        7.7036624857
  C         7.8190347885        8.8119719809        7.6455753777
  C         6.5127009686       11.0067067715        7.5462968967
  C        11.3018100539        6.7997214227        7.7482936464
  C        10.1248225128        8.9222621694        7.5928288388
  C        12.4306095070        8.8016061417        7.6021839286
  C        13.5879710970       11.0217838018        7.4518815386
  N         5.3641027641       11.6658448728        7.3636807526
  N         6.5815331962        9.5220515341        7.5488617668
  N         7.7994399880        7.4546717627        7.7536014012
  N         8.9261021883        5.4983822017        7.6316418074
  N         7.6592266315       11.6896716433        7.6887915197
  N         8.9773843203        9.4812227973        7.5679245043
  N        10.1360194258        7.4995945368        7.6764966918
  N        11.2764744842        5.4763664990        7.7566219531
  N        11.3037040572        9.5336340996        7.5169791674
  N        12.4766901870        7.4723403906        7.7687464502
  N        13.7399483204        9.5601296466        7.5127218368
  N        12.4686122994       11.7263092126        7.2596959747
  N         0.5216137886        3.4104908246        7.0438819823
  N         1.6825643892        1.4262336979        7.5934295358
  N         2.9237084091        3.4241942693        7.4288343992
  N         5.2989628564        3.3672341680        7.4786468553
  N         7.6243890496        3.4116415542        7.4994606770
  N         8.8365992561        1.4051970467        7.6286409771
  N         6.5066431940        1.3737512966        7.5180926429
  N         4.1405478143        1.2811921597        7.3235441705
  N        10.0896742940        3.4681752521        7.4112658359
  N        11.3241464550        1.3350849126        7.3041115666
  N        12.4527117994        3.3691785631        7.0169255063
  N        13.6560514146        1.4094679526        7.2802491681
  N         5.3444177324        7.5284647430        7.6369098289
  N         4.2412980835        9.5687061043        7.8637502533
  N         0.5230691247       11.7513373420        7.5425030749
  N         1.8837646753        9.5209725680        7.7352159245
  N         3.0107968557        7.5277979400        7.5505188991
  N         4.1919780315        5.5378647210        7.6272111795
  N         1.7828474653        5.5276852709        7.3121413740
  N         0.7183801370        7.5456471063        7.2353760169
