      56
 i =       89, time =       89.000, E =      -152.8223378025
  C         0.5390895692        0.6899397002        7.4820600256
  C         1.6514766553        2.7459105501        7.3060178018
  C         5.2773103934        0.6450121133        7.3994348188
  C         4.1259169994        2.6779747364        7.3706979120
  C         7.7279087109        0.6851696339        7.6205057481
  C         6.4753785677        2.8234293258        7.4483889254
  C         8.8326210943        2.7636405523        7.4944705093
  C        12.4646718190        0.6808654754        7.2264605679
  C        11.3105893473        2.6844053596        7.2477428132
  C        13.6144691737        2.7761570672        7.0287280192
  C         2.9965637980        4.8719192048        7.4679918009
  C         1.8520944542        6.8406155777        7.3103247470
  C         0.7015553724        8.8617847891        7.5512597147
  C         4.2006937104        6.8208475385        7.5822926511
  C         3.0189216567        8.9276280508        7.7710986871
  C         5.3627157042        8.8683794234        7.7253101340
  C        10.1228095655        4.8375566800        7.5411160348
  C         8.9210952034        6.8213443841        7.7149275502
  C         7.8149469846        8.8119671780        7.7022183165
  C         6.5651612011       10.9650290395        7.5548345452
  C        11.3312753510        6.8315022519        7.7322380024
  C        10.1522347140        8.8872980262        7.6279101552
  C        12.4928082291        8.8394343714        7.6562228497
  C        13.6860327810       11.0122641344        7.4148942905
  N         5.3965014181       11.6112865500        7.3055933031
  N         6.5933694232        9.5556058743        7.6667544804
  N         7.7608643031        7.5152064936        7.7552798695
  N         8.9777696820        5.4954962250        7.6747302622
  N         7.6992584755       11.6656672440        7.6727755805
  N         8.9136497376        9.5214533760        7.5656779327
  N        10.1326589255        7.5225104607        7.6741640922
  N        11.2925498909        5.4978627846        7.7016441541
  N        11.3386766263        9.4913710808        7.4969206469
  N        12.4466430865        7.5339116113        7.8978209862
  N        13.6704698603        9.5397883306        7.5010968503
  N        12.5006041746       11.6394971167        7.2376494720
  N         0.6061112527        3.3875285967        6.9893275939
  N         1.6981452647        1.3942697439        7.5862532185
  N         2.9474160026        3.4400102521        7.3622446364
  N         5.2413199148        3.3920468619        7.4420463005
  N         7.6905135331        3.4517709833        7.5117203378
  N         8.8311287797        1.4636647250        7.6636875676
  N         6.5001310843        1.4043685984        7.5052693826
  N         4.1486178645        1.3519696937        7.2858195354
  N        10.1220764615        3.4497045669        7.4224396378
  N        11.2875132066        1.3898678863        7.2687683580
  N        12.4326412999        3.3819145448        7.0146587445
  N        13.6188098585        1.3697489987        7.2200350194
  N         5.3440891721        7.5350627214        7.6584762404
  N         4.2032932845        9.5247200614        7.8748126509
  N         0.5144027417       11.6673131245        7.5996398890
  N         1.8122927016        9.5570952313        7.7958314262
  N         3.0050152110        7.5269623067        7.4929342099
  N         4.1278330146        5.4696232615        7.6417327044
  N         1.8550662901        5.4737423271        7.3375057260
  N         0.7078713309        7.5570720213        7.2071501624
