      56
 i =       82, time =       82.000, E =      -152.8312881047
  C         0.5847188543        0.7320244919        7.4786760695
  C         1.6708649264        2.7270368715        7.3453209740
  C         5.3278129564        0.6728163907        7.3728652899
  C         4.1532961224        2.6474406565        7.4013014231
  C         7.6983788848        0.6844847570        7.6018506199
  C         6.4433437581        2.8059210930        7.4427307575
  C         8.8320179476        2.7713056963        7.4673156918
  C        12.4783951689        0.6652278730        7.2435403326
  C        11.2910051154        2.6906070796        7.2340242315
  C        13.6162242476        2.7799296055        7.0848495007
  C         2.9716269760        4.9054328630        7.4452833675
  C         1.8075581936        6.8240398206        7.3419898512
  C         0.7399604703        8.8456050707        7.5259629882
  C         4.2022965175        6.8425238413        7.5947181054
  C         3.0518720865        8.9622703596        7.7493959712
  C         5.3926209776        8.8655937848        7.6930562521
  C        10.1168011862        4.8540106304        7.5484488053
  C         8.9554022238        6.8127034303        7.7078133266
  C         7.8061513684        8.7974747017        7.6747624819
  C         6.5234611798       10.9636456229        7.5518323975
  C        11.3074736079        6.8157198177        7.7361642061
  C        10.1501275527        8.9198391418        7.6106443353
  C        12.4612287226        8.7924367480        7.6322057032
  C        13.6269389953       11.0122922019        7.4391584451
  N         5.3756816417       11.6345513819        7.3378176164
  N         6.5867806544        9.5154213328        7.5940836099
  N         7.7718620614        7.5008550653        7.7530579048
  N         8.9451133568        5.4991690362        7.6534226162
  N         7.6768636746       11.6798961626        7.6821630261
  N         8.9398799899        9.4888313997        7.5660773529
  N        10.1378067716        7.5051794656        7.6758684902
  N        11.2779881539        5.4814269782        7.7384715818
  N        11.3123087058        9.5125004784        7.5067245205
  N        12.4587982657        7.5157778887        7.8227432558
  N        13.7236995014        9.5436974507        7.5052131436
  N        12.4858362801       11.7194968936        7.2478537479
  N         0.5618346882        3.4021527600        7.0190775912
  N         1.6763886165        1.4016797341        7.5895915684
  N         2.9345522301        3.4422063632        7.4009310867
  N         5.2670557582        3.3813431317        7.4668679844
  N         7.6636172574        3.4228335938        7.5151971496
  N         8.8308018926        1.4395959647        7.6494686064
  N         6.5234293017        1.3884724250        7.5204094035
  N         4.1303961801        1.3092338078        7.3078069168
  N        10.1199330941        3.4875039492        7.4178203369
  N        11.3169993658        1.3518279902        7.2901585452
  N        12.4446352980        3.3666433003        7.0155348919
  N        13.6335959279        1.3777503096        7.2546430858
  N         5.3449114609        7.5403384490        7.6486780421
  N         4.2332926084        9.5488115450        7.8703330083
  N         0.5015084243       11.7183013147        7.5622260746
  N         1.8481044943        9.5247974806        7.7541506269
  N         2.9945978473        7.5171369832        7.5235769578
  N         4.1708234008        5.5001540118        7.6380842192
  N         1.8217327007        5.4920805618        7.3274607426
  N         0.7311384613        7.5510329276        7.2205965311
