      56
 i =        7, time =        7.000, E =      -152.8387150496
  C         0.6587060639        0.6448322467        7.4935580409
  C         1.7341885864        2.6953674031        7.4854432671
  C         5.3282555284        0.6524506311        7.4695833246
  C         4.2814909796        2.6516280135        7.5217197073
  C         7.7831960774        0.6416849978        7.5083984439
  C         6.5521606557        2.7308268602        7.5397945950
  C         8.8433972475        2.6700601011        7.5235776419
  C        12.4222943459        0.6450729136        7.4771321400
  C        11.3331451693        2.7156886981        7.4687240191
  C        13.6601461419        2.7986204543        7.4778439747
  C         2.9665942931        4.9050274199        7.4782755648
  C         1.7920335447        6.8320306313        7.5380566410
  C         0.6790512194        8.8618551857        7.4642821451
  C         4.1601374562        6.8366924560        7.5285785761
  C         2.9884049541        8.9622484639        7.5029559044
  C         5.3339944831        8.8743305433        7.5098176138
  C        10.0941376832        4.8297189984        7.5351455017
  C         8.8968011458        6.8396522107        7.5132123811
  C         7.8039929246        8.8533294347        7.4946614115
  C         6.5153428524       11.0585256872        7.5155312040
  C        11.3157676705        6.8341077695        7.5655233335
  C        10.0823772893        8.9256203288        7.4882875397
  C        12.4474178331        8.8590065114        7.4826275972
  C        13.5976241821       11.0285988945        7.5044317457
  N         5.3345518383       11.6851625091        7.4806722423
  N         6.5788646110        9.6087752951        7.5382803528
  N         7.7675290231        7.4861696400        7.5141020242
  N         8.9369798709        5.5036047214        7.5014878681
  N         7.6751560761       11.6649563022        7.5183643856
  N         8.9053517150        9.5609700385        7.4860552521
  N        10.0979590501        7.5637041327        7.5299699549
  N        11.2560610912        5.5150303689        7.5334846647
  N        11.3135538283        9.5823431101        7.5336123123
  N        12.4524364666        7.5001653971        7.4792277639
  N        13.7076428144        9.6016266298        7.4785908584
  N        12.4448378493       11.6422010560        7.5045611611
  N         0.5488576456        3.4182063186        7.4836341888
  N         1.7537323928        1.3978860777        7.5160835516
  N         2.9825832226        3.4103264982        7.4974252359
  N         5.3522911228        3.3873394982        7.5053082243
  N         7.7116467317        3.3895617194        7.4530822992
  N         8.8757890188        1.3255562726        7.4855665944
  N         6.5322794260        1.3487937317        7.4901299513
  N         4.2068652275        1.3340282552        7.4964404821
  N        10.0588118903        3.3724323722        7.4972661613
  N        11.3117662309        1.3441022959        7.4698015177
  N        12.4942608724        3.4037336109        7.4358521939
  N        13.6709280294        1.3910695653        7.5000969918
  N         5.2839906438        7.5194093604        7.4893984566
  N         4.1702989674        9.5506746188        7.5074176012
  N         0.6025529984       11.6664795668        7.4980890911
  N         1.8354355789        9.5376045155        7.5313408639
  N         2.9885661884        7.5769064538        7.5324847651
  N         4.1527208082        5.5090811508        7.5056623038
  N         1.7648962615        5.5004999171        7.4498227286
  N         0.6203944251        7.4995193799        7.4928108273
