      56
 i =       52, time =       52.000, E =      -152.8199471874
  C         0.6089313861        0.7146655130        7.4971040354
  C         1.7228254126        2.7516209998        7.4363666898
  C         5.3042858900        0.6221149120        7.4454568392
  C         4.1728502257        2.7119517124        7.4876584728
  C         7.7069406264        0.6469479868        7.5852939406
  C         6.5177998834        2.7168661464        7.5107958117
  C         8.8133965870        2.6618368407        7.4745764192
  C        12.3997191062        0.6343841085        7.3577026610
  C        11.2437165590        2.6985103477        7.2911995339
  C        13.5738277126        2.8058301047        7.2088658374
  C         2.9567939767        4.8453825426        7.4705926318
  C         1.8147242264        6.8881463410        7.4075054696
  C         0.6670001234        8.9581892924        7.4836609030
  C         4.2132939562        6.7772047759        7.6170581922
  C         2.9778382769        8.9383302076        7.6834813833
  C         5.3730394736        8.8515464169        7.6064491991
  C        10.0938495051        4.7650988692        7.6319248371
  C         8.9167258241        6.8419317972        7.6695073582
  C         7.8120832202        8.9292879872        7.5579868301
  C         6.5514240368       10.9996284286        7.5214691837
  C        11.3465062408        6.7727311540        7.6949818055
  C        10.1228026882        8.8981976331        7.5802518056
  C        12.4817235223        8.8573396385        7.5123542603
  C        13.6753317786       11.0528491735        7.4321503807
  N         5.3446991906       11.6120408866        7.3834200308
  N         6.5573727600        9.6072655033        7.5196245123
  N         7.7914783776        7.5808547813        7.6697533480
  N         8.9494332882        5.4818349377        7.5508384473
  N         7.7259155443       11.6350260888        7.6780190865
  N         8.9943285300        9.5380149216        7.4969089995
  N        10.1533808129        7.4569177694        7.6765872543
  N        11.2518734314        5.4157890270        7.8172509385
  N        11.3155090136        9.4642825207        7.5663073636
  N        12.5026146278        7.5381224758        7.5244838919
  N        13.6822327464        9.6353652196        7.4884709225
  N        12.4949399762       11.6959450506        7.3809081518
  N         0.5732264758        3.4598189064        7.2422462783
  N         1.6930542620        1.4190925618        7.5793038223
  N         2.9626871484        3.4391198891        7.4871298309
  N         5.3473551046        3.3534815778        7.5445524813
  N         7.6665529917        3.3341314523        7.4265818436
  N         8.8400455288        1.3423872544        7.5265996111
  N         6.5034827992        1.3051373383        7.4641578543
  N         4.1254771475        1.3594620545        7.3790571439
  N        10.0586906743        3.3959938182        7.4126470284
  N        11.2766593628        1.3965469579        7.3258969838
  N        12.4415629183        3.4309836194        7.0885125638
  N        13.6021799911        1.3715846038        7.4058468073
  N         5.3506036207        7.5215698456        7.5565285915
  N         4.1928288145        9.5027538896        7.7163182940
  N         0.6121484929       11.6989413957        7.4976094704
  N         1.8112915533        9.6171442924        7.5999838538
  N         2.9927512445        7.5102140245        7.6542746973
  N         4.1569024554        5.4572833688        7.5551049378
  N         1.8658049984        5.5822907176        7.2984343477
  N         0.7267754639        7.6439978248        7.3565371480
