       6
 i =        9, time =        9.000, E =      -180.7837806267
 Ti         2.3271066957        2.3310588860        1.4673298283
 Ti        -0.0219191429        0.0164135950       -0.0182915314
  O         0.7934770418        3.8076489534        1.4547510486
  O         3.8750311467        0.7959366450        1.5203505855
  O         1.5451129195        1.4866444718        0.0269733262
  O         3.1571809879        3.1558654477        0.0720992494
