       6
 i =       12, time =       12.000, E =      -180.7829589477
 Ti         2.3222857928        2.3357099486        1.4531089314
 Ti        -0.0303067446        0.0220395881       -0.0301019132
  O         0.7490576733        3.8374066917        1.4602010764
  O         3.9356959740        0.7418086694        1.5363110580
  O         1.6085370842        1.5267230407        0.0498829607
  O         3.1169978145        3.1112350083        0.1059318018
