       6
 i =       25, time =       25.000, E =      -180.8277114692
 Ti         2.2493623144        2.3937640443        1.3979166450
 Ti        -0.0478972227        0.0111766892       -0.0924276661
  O         0.7957783825        3.7610367039        1.6072962970
  O         3.9773540862        0.7552826937        1.5588137300
  O         1.7164559053        1.4649660675        0.1593375117
  O         3.1870851010        3.1101922790        0.2081794585
