       6
 i =       23, time =       23.000, E =      -180.8016775064
 Ti         2.2655772779        2.3806227227        1.3996518698
 Ti        -0.0477846128        0.0180988021       -0.0849758025
  O         0.7635182131        3.7939769457        1.5766650573
  O         3.9967160631        0.7229442342        1.5656239409
  O         1.7220941847        1.5048245567        0.1526788101
  O         3.1469585181        3.0858911984        0.2039176147
