       6
 i =       21, time =       21.000, E =      -180.7724551138
 Ti         2.2809027292        2.3683422338        1.4043696616
 Ti        -0.0470995557        0.0235542569       -0.0762567367
  O         0.7369447177        3.8226634400        1.5465690583
  O         4.0106614715        0.6975303832        1.5693267890
  O         1.7215694349        1.5375970681        0.1402956022
  O         3.1132949438        3.0676611302        0.1954376842
