       6
 i =       20, time =       20.000, E =      -180.7604944530
 Ti         2.2876577276        2.3630129124        1.4078792034
 Ti        -0.0463872068        0.0253920647       -0.0715688585
  O         0.7272397580        3.8338772279        1.5329061629
  O         4.0139510738        0.6894234021        1.5694554591
  O         1.7182824848        1.5491580317        0.1323919077
  O         3.1010670522        3.0621655067        0.1895127014
