       6
 i =       10, time =       10.000, E =      -180.7862793641
 Ti         2.3259184433        2.3323303159        1.4632005599
 Ti        -0.0246572422        0.0183187268       -0.0217663243
  O         0.7778535598        3.8181678100        1.4552999434
  O         3.8952433221        0.7777469169        1.5253262920
  O         1.5658718799        1.5000362998        0.0335098861
  O         3.1435326026        3.1410907703        0.0827629025
