       6
 i =       17, time =       17.000, E =      -180.7502057086
 Ti         2.3047212380        2.3497643760        1.4228989418
 Ti        -0.0423260765        0.0274271885       -0.0559578592
  O         0.7143776553        3.8536819304        1.4970266406
  O         4.0058159973        0.6855072183        1.5625638717
  O         1.6937153603        1.5631799441        0.1028684177
  O         3.0843757477        3.0621246290        0.1639336599
