       6
 i =       24, time =       24.000, E =      -180.8144486455
 Ti         2.2575629830        2.3870999584        1.3984605044
 Ti        -0.0478581265        0.0147674611       -0.0887930635
  O         0.7790360482        3.7778956330        1.5918770695
  O         3.9874500826        0.7385336666        1.5624870840
  O         1.7198803860        1.4855863742        0.1566739772
  O         3.1663957222        3.0974285148        0.2064762110
