 DBCSR| CPU Multiplication driver                                           BLAS
 DBCSR| Multrec recursion limit                                              512
 DBCSR| Multiplication stack size                                           1000
 DBCSR| Maximum elements for images                                    UNLIMITED
 DBCSR| Multiplicative factor virtual images                                   1
 DBCSR| Use multiplication densification                                       T
 DBCSR| Multiplication size stacks                                             3
 DBCSR| Use memory pool for CPU allocation                                     F
 DBCSR| Number of 3D layers                                               SINGLE
 DBCSR| Use MPI memory allocation                                              F
 DBCSR| Use RMA algorithm                                                      F
 DBCSR| Use Communication thread                                               T
 DBCSR| Communication thread load                                             83
 DBCSR| MPI: My node id                                                        0
 DBCSR| MPI: Number of nodes                                                  12
 DBCSR| OMP: Current number of threads                                         2
 DBCSR| OMP: Max number of threads                                             2
 DBCSR| Split modifier for TAS multiplication algorithm                  1.0E+00


  **** **** ******  **  PROGRAM STARTED AT               2021-12-27 12:26:10.765
 ***** ** ***  *** **   PROGRAM STARTED ON        srv-p22-13.cbls.ccr.buffalo.ed
 **    ****   ******    PROGRAM STARTED BY                              mshakiba
 ***** **    ** ** **   PROGRAM PROCESS ID                                134102
  **** **  *******  **  PROGRAM STARTED IN /panfs/panfs.cbls.ccr.buffalo.edu/scr
                                           atch/grp-alexeyak/mohammad/my_reposit
                                           ories/Tutorials_Libra/6_dynamics/2_nb
                                           ra_workflows/7_step2_cp2k/2_xTB/1_des
                                           ktop

 CP2K| version string:                                          CP2K version 8.2
 CP2K| source code revision number:                                  git:310b7ab
 CP2K| cp2kflags: omp libint fftw3 libxc elpa parallel mpi3 scalapack max_contr=
 CP2K|            4 no_ipi_driver mkl
 CP2K| is freely available from                            https://www.cp2k.org/
 CP2K| Program compiled at                          Sun Dec 26 06:37:31 EST 2021
 CP2K| Program compiled on                       srv-p22-12.cbls.ccr.buffalo.edu
 CP2K| Program compiled for                                  Linux-x86-64-intelx
 CP2K| Data directory path    /projects/academic/cyberwksp21/Software/cp2k-intel
 CP2K| Input file name                                          Diag_libra-2.inp
 
 GLOBAL| Force Environment number                                              1
 GLOBAL| Basis set file name                                           BASIS_SET
 GLOBAL| Potential file name                                           POTENTIAL
 GLOBAL| MM Potential file name                                     MM_POTENTIAL
 GLOBAL| Coordinate file name                                        coord-2.xyz
 GLOBAL| Method name                                                        CP2K
 GLOBAL| Project name                                               Diag_libra-2
 GLOBAL| Run type                                                         ENERGY
 GLOBAL| FFT library                                                       FFTW3
 GLOBAL| Diagonalization library                                            ELPA
 GLOBAL| Minimum number of eigenvectors for ELPA usage                        16
 GLOBAL| Orthonormality check for eigenvectors                          DISABLED
 GLOBAL| Matrix multiplication library                                    SCALAP
 GLOBAL| All-to-all communication in single precision                          F
 GLOBAL| FFTs using library dependent lengths                                  F
 GLOBAL| Grid backend                                                       AUTO
 GLOBAL| Global print level                                                  LOW
 GLOBAL| MPI I/O enabled                                                       T
 GLOBAL| Total number of message passing processes                            12
 GLOBAL| Number of threads for this process                                    2
 GLOBAL| This output is from process                                           0
 GLOBAL| CPU model name                 Intel(R) Xeon(R) Gold 6130 CPU @ 2.10GHz
 GLOBAL| CPUID                                                              1002

 MEMORY| system memory details [Kb]
 MEMORY|                        rank 0           min           max       average
 MEMORY| MemTotal            196340348     196340348     196340348     196340348
 MEMORY| MemFree               1411432       1411432       1411432       1411432
 MEMORY| Buffers                236452        236452        236452        236452
 MEMORY| Cached              181874140     181874140     181874140     181874140
 MEMORY| Slab                  3744872       3744872       3744872       3744872
 MEMORY| SReclaimable          3264484       3264484       3264484       3264484
 MEMORY| MemLikelyFree       186786508     186786508     186786508     186786508

 
 GENERATE|  Preliminary Number of Bonds generated:                             0
 GENERATE|  Achieved consistency in connectivity generation.


                  #####   #####        #          ####### ######   
                 #     # #     #      #              #    #     #  
                 #     # #           #    ##   ##    #    #     #  
                 #     #  #####     #      ## ##     #    ######   
                 #   # #       #   #        ###      #    #     #  
                 #    #  #     #  #        ## ##     #    #     #  
                  #### #  #####  #        ##   ##    #    ######   
                                                                   
                                 Version 1.0                       
                            J. Hutter and A. Hehn                  
                                                                   


 EWALD| Summation is done by:                                               SPME
 EWALD| Alpha parameter [       ANGSTROM^-1]                              1.8897
 EWALD| Real Space Cutoff [          ANGSTROM]                            1.7854
 EWALD| G-space max. Miller index                         81        75       125
 EWALD| Spline interpolation order                                             6


 TOTAL NUMBERS AND MAXIMUM NUMBERS

  Total number of            - Atomic kinds:                                   2
                             - Atoms:                                         56
                             - Shell sets:                                   112
                             - Shells:                                       112
                             - Primitive Cartesian functions:                672
                             - Cartesian basis functions:                    224
                             - Spherical basis functions:                    224

  Maximum angular momentum of the orbital basis functions:                     1


 SCF PARAMETERS         Density guess:                                   RESTART
                        --------------------------------------------------------
                        max_scf:                                              50
                        max_scf_history:                                       0
                        max_diis:                                              4
                        --------------------------------------------------------
                        eps_scf:                                        1.00E-06
                        eps_scf_history:                                0.00E+00
                        eps_diis:                                       1.00E-01
                        eps_eigval:                                     1.00E-05
                        --------------------------------------------------------
                        level_shift [a.u.]:                                 0.00
                        added MOs                                        50    0
                        --------------------------------------------------------
                        Mixing method:                           DIRECT_P_MIXING
                        --------------------------------------------------------
                        No outer SCF

 Number of electrons:                                                        256
 Number of occupied orbitals:                                                128
 Number of molecular orbitals:                                               178

 Number of orbital functions:                                                224
 Number of independent orbital functions:                                    224

 Extrapolation method: initial_guess


 SCF WAVEFUNCTION OPTIMIZATION

  Step     Update method      Time    Convergence         Total energy    Change
  ------------------------------------------------------------------------------
     1 P_Mix/Diag. 0.40E+00    0.0     0.01485675      -152.8712734069 -1.53E+02
     2 P_Mix/Diag. 0.40E+00    0.0     0.00925703      -152.8719018588 -6.28E-04
     3 DIIS/Diag.  0.45E-03    0.0     0.00518017      -152.8722805846 -3.79E-04
     4 DIIS/Diag.  0.18E-03    0.0     0.00025430      -152.8728494825 -5.69E-04
     5 DIIS/Diag.  0.18E-03    0.0     0.00012397      -152.8728495458 -6.33E-08
     6 DIIS/Diag.  0.72E-04    0.0     0.00007610      -152.8728496703 -1.24E-07
     7 DIIS/Diag.  0.29E-04    0.0     0.00001871      -152.8728496918 -2.15E-08
     8 DIIS/Diag.  0.41E-05    0.0     0.00000812      -152.8728496941 -2.28E-09
     9 DIIS/Diag.  0.78E-05    0.0     0.00000572      -152.8728496939  1.68E-10
    10 DIIS/Diag.  0.21E-05    0.0     0.00000241      -152.8728496941 -2.46E-10
    11 DIIS/Diag.  0.62E-06    0.0     0.00000120      -152.8728496942 -2.41E-11
    12 DIIS/Diag.  0.16E-05    0.0     0.00000124      -152.8728496942  2.96E-12
    13 DIIS/Diag.  0.53E-06    0.0     0.00000046      -152.8728496942 -4.18E-12

  *** SCF run converged in    13 steps ***


  Core Hamiltonian energy:                                   -154.86141737375829
  Repulsive potential energy:                                   1.51932294566729
  Electronic energy:                                            0.47477763944996
  DFTB3 3rd order energy:                                       0.07073834393025
  Dispersion energy:                                           -0.07627124944659
  Correction for halogen bonding:                               0.00000000000000

  Total energy:                                              -152.87284969415737

   Calculate PDOS at iteration step                                  0

              ---- PDOS: start iteration on the KS states --- 

 ENERGY| Total FORCE_EVAL ( QS ) energy [a.u.]:             -152.872849694157367

 -------------------------------------------------------------------------------
 -                                                                             -
 -                                DBCSR STATISTICS                             -
 -                                                                             -
 -------------------------------------------------------------------------------
 COUNTER                                    TOTAL       BLAS       SMM       ACC
 flops     4 x    32 x     4             11108352     100.0%      0.0%      0.0%
 flops     4 x     4 x    18             11160576     100.0%      0.0%      0.0%
 flops     4 x     4 x    32             99205120     100.0%      0.0%      0.0%
 flops inhomo. stacks                           0       0.0%      0.0%      0.0%
 flops total                       121.474048E+06     100.0%      0.0%      0.0%
 flops max/rank                     11.889280E+06     100.0%      0.0%      0.0%
 matmuls inhomo. stacks                         0       0.0%      0.0%      0.0%
 matmuls total                             127104     100.0%      0.0%      0.0%
 number of processed stacks                  2112     100.0%      0.0%      0.0%
 average stack size                                    60.2       0.0       0.0
 marketing flops                   192.675808E+06
 -------------------------------------------------------------------------------
 # multiplications                             15
 max memory usage/rank             212.623360E+06
 # max total images/rank                        3
 # max 3D layers                                1
 # MPI messages exchanged                    1440
 MPI messages size (bytes):
  total size                        28.759040E+06
  min size                           0.000000E+00
  max size                          33.024000E+03
  average size                      19.971555E+03
 MPI breakdown and total messages size (bytes):
             size <=      128                  12                        0
       128 < size <=     8192                  84                   451584
      8192 < size <=    32768                1339                 28142336
     32768 < size <=   131072                   5                   165120
    131072 < size <=  4194304                   0                        0
   4194304 < size <= 16777216                   0                        0
  16777216 < size                               0                        0
 -------------------------------------------------------------------------------

 *** WARNING in dbcsr_mm.F:294 :: Using a non-square number of MPI ranks ***
 *** might lead to poor performance. Used ranks: 12 Suggested: 9 25      ***

 -------------------------------------------------------------------------------
 -                                                                             -
 -                      DBCSR MESSAGE PASSING PERFORMANCE                      -
 -                                                                             -
 -------------------------------------------------------------------------------
 ROUTINE             CALLS      AVE VOLUME [Bytes]
 MP_Bcast                4                     12.
 MP_Allreduce          111                     11.
 MP_Alltoall           576                  16505.
 MP_ISend              360                   8543.
 MP_IRecv              360                   7893.
 -------------------------------------------------------------------------------

 -------------------------------------------------------------------------------
 -                                                                             -
 -                                GRID STATISTICS                              -
 -                                                                             -
 -------------------------------------------------------------------------------
 LP    KERNEL             BACKEND                              COUNT     PERCENT
 -------------------------------------------------------------------------------

 MEMORY| Estimated peak process memory [MiB]                                 204

 -------------------------------------------------------------------------------
 -                                                                             -
 -                         MESSAGE PASSING PERFORMANCE                         -
 -                                                                             -
 -------------------------------------------------------------------------------

 ROUTINE             CALLS      AVE VOLUME [Bytes]
 MP_Group                2
 MP_Bcast              255                 265850.
 MP_Allreduce          662                   1176.
 MP_Sync                30
 MP_Alltoall            26                2017632.
 MP_Wait               286
 MP_comm_split          14
 MP_ISend              208                  93000.
 MP_IRecv              208                  93000.
 MP_Recv                 5                  53760.
 -------------------------------------------------------------------------------


 -------------------------------------------------------------------------------
 -                                                                             -
 -                           R E F E R E N C E S                               -
 -                                                                             -
 -------------------------------------------------------------------------------
 
 CP2K version 8.2, the CP2K developers group (2021).
 CP2K is freely available from https://www.cp2k.org/ .

 Kuehne,Thomas D.; Iannuzzi,Marcella; Del Ben,Mauro;
 Rybkin,Vladimir V.; Seewald,Patrick; Stein,Frederick; Laino,Teodoro;
 Khaliullin,Rustam Z.; Schuett,Ole; Schiffmann,Florian; Golze,Dorothea;
 Wilhelm,Jan; Chulkov,Sergey; Bani-Hashemian,Mohammad Hossein;
 Weber,Valery; Borstnik,Urban; Taillefumier,Mathieu;
 Jakobovits,Alice Shoshana; Lazzaro,Alfio; Pabst,Hans; Mueller,Tiziano;
 Schade,Robert; Guidon,Manuel; Andermatt,Samuel; Holmberg,Nico;
 Schenter,Gregory K.; Hehn,Anna; Bussy,Augustin; Belleflamme,Fabian;
 Tabacchi,Gloria; Gloess,Andreas; Lass,Michael; Bethune,Iain;
 Mundy,Christopher J.; Plessl,Christian; Watkins,Matt;
 VandeVondele,Joost; Krack,Matthias; Hutter,Juerg. 
 The Journal of Chemical Physics, 152 (19), (2020). 
 CP2K: An electronic structure and molecular dynamics software package -
 Quickstep: Efficient and accurate electronic structure calculations.
 https://doi.org/10.1063/5.0007045

 Grimme, S; Bannwarth, C; Shushkov, P. 
 Journal of Chemical Theory and Computation, 13, 1989 (2017). 
 A Robust and Accurate Tight-Binding Quantum Chemical Method for
 Structures, Vibrational Frequencies, and Noncovalent Interactions of
 Large Molecular Systems Parametrized for All spd-Block Elements (Z = 1-86).
 https://doi.org/10.1021/acs.jctc.7b00118

 Goerigk, Lars; Hansen, Andreas; Bauer, Christoph; Ehrlich, Stephan;
 Najibi, Asim; Grimme, Stefan. , 19 (48), (2017). 
 A look at the density functional theory zoo with the advanced GMTKN55 database
 for general main group thermochemistry, kinetics and noncovalent interactions.
 https://doi.org/10.1039/C7CP04913G

 Schuett, Ole; Messmer, Peter; Hutter, Juerg; VandeVondele, Joost. 
 Electronic Structure Calculations on Graphics Processing Units, John
 Wiley & Sons, Ltd, 173-190 (2016). 
 GPU-Accelerated Sparse Matrix-Matrix Multiplication for
 Linear Scaling Density Functional Theory.
 https://doi.org/10.1002/9781118670712.ch8

 Borstnik, U; VandeVondele, J; Weber, V; Hutter, J. 
 PARALLEL COMPUTING, 40 (5-6), 47-58 (2014). 
 Sparse matrix multiplication: The distributed block-compressed sparse
 row library.
 https://doi.org/10.1016/j.parco.2014.03.012

 Hutter, J; Iannuzzi, M; Schiffmann, F; VandeVondele, J. 
 WIREs Comput Mol Sci., 4 (1), 15-25 (2014). 
 CP2K: atomistic simulations of condensed matter systems.
 https://doi.org/10.1002/wcms.1159

 Marek, A; Blum, V; Johanni, R; Havu, V; Lang, B; Auckenthaler, T;
 Heinecke, A; Bungartz, H; Lederer, H. 
 Journal of Physics: Condensed Matter, 26 (21), (2014). 
 The ELPA library: scalable parallel eigenvalue solutions for
 electronic structure
 theory and computational science.
 https://doi.org/10.1088/0953-8984/26/21/213201

 Grimme, S; Ehrlich, S; Goerigk, L. 
 JOURNAL OF COMPUTATIONAL CHEMISTRY, 32, 1456 (2011). 
 Effect of the damping function in dispersion corrected density functional theory.
 https://doi.org/10.1002/jcc.21759

 Grimme, S; Antony, J; Ehrlich, S; Krieg, H. 
 JOURNAL OF CHEMICAL PHYSICS, 132 (15), 154104 (2010). 
 A consistent and accurate ab initio parametrization of density
 functional dispersion correction (DFT-D) for the 94 elements H-Pu.
 https://doi.org/10.1063/1.3382344

 Frigo, M; Johnson, SG. 
 PROCEEDINGS OF THE IEEE, 93 (2), 216-231 (2005). 
 The design and implementation of FFTW3.
 https://doi.org/10.1109/JPROC.2004.840301


 -------------------------------------------------------------------------------
 -                                                                             -
 -                                T I M I N G                                  -
 -                                                                             -
 -------------------------------------------------------------------------------
 SUBROUTINE                       CALLS  ASD         SELF TIME        TOTAL TIME
                                MAXIMUM       AVERAGE  MAXIMUM  AVERAGE  MAXIMUM
 CP2K                                 1  1.0    0.021    0.026    0.969    0.970
 qs_energies                          1  2.0    0.000    0.000    0.816    0.859
 scf_env_do_scf                       1  3.0    0.000    0.000    0.459    0.486
 scf_env_do_scf_inner_loop           13  4.0    0.000    0.001    0.459    0.486
 scf_post_calculation_tb              1  3.0    0.000    0.000    0.330    0.347
 calculate_projected_dos              1  4.0    0.007    0.052    0.265    0.283
 write_mos_molden                     1  4.0    0.023    0.273    0.038    0.273
 qs_scf_new_mos                      13  5.0    0.000    0.000    0.258    0.259
 mp_sum_iv                           44  6.8    0.235    0.257    0.235    0.257
 qs_ks_update_qs_env                 13  5.0    0.000    0.000    0.170    0.170
 rebuild_ks_matrix                   13  6.0    0.000    0.000    0.169    0.170
 build_xtb_ks_matrix                 13  7.0    0.000    0.000    0.169    0.169
 build_xtb_coulomb                   13  8.0    0.004    0.005    0.168    0.168
 tb_spme_evaluate                    13  9.0    0.002    0.003    0.161    0.162
 eigensolver                         13  6.0    0.001    0.001    0.156    0.157
 cp_fm_diag_elpa                     14  6.9    0.000    0.000    0.149    0.149
 cp_fm_redistribute_end              14  7.9    0.093    0.136    0.093    0.136
 cp_fm_diag_elpa_base                14  7.9    0.042    0.126    0.043    0.130
 qs_init_subsys                       1  2.0    0.001    0.003    0.067    0.068
 pw_transfer                         91 10.7    0.004    0.004    0.063    0.066
 fft_wrap_pw1pw2                     26 11.0    0.000    0.000    0.058    0.060
 fft_wrap_pw1pw2_50                  26 12.0    0.006    0.007    0.058    0.060
 rs_grid_zero                        39 10.7    0.053    0.058    0.053    0.058
 rs_pw_transfer                      26 10.0    0.000    0.000    0.055    0.057
 write_mo_set_to_restart             13  5.0    0.002    0.022    0.028    0.054
 fft3d_ps                            26 13.0    0.028    0.033    0.050    0.054
 mp_sum_dm                          206  6.4    0.046    0.050    0.046    0.050
 qs_diis_b_step                      12  6.0    0.000    0.001    0.048    0.049
 mp_sum_i                             4  3.0    0.044    0.048    0.044    0.048
 restraint_control                    1  2.0    0.000    0.000    0.044    0.048
 calculate_dm_sparse                 14  6.0    0.000    0.000    0.042    0.043
 cp_dbcsr_plus_fm_fm_t_native        14  7.0    0.000    0.000    0.042    0.043
 qs_dispersion_pairpot_init           1  3.0    0.008    0.040    0.041    0.041
 rs_pw_transfer_PW2RS_50             13 11.0    0.009    0.010    0.037    0.039
 copy_dbcsr_to_fm                    28  6.4    0.001    0.001    0.034    0.038
 mp_bcast_dv                         17  8.4    0.033    0.036    0.033    0.036
 dbcsr_complete_redistribute         58  8.2    0.007    0.009    0.032    0.035
 dbcsr_multiply_generic              15  8.1    0.001    0.001    0.032    0.033
 write_mo_set_low                     1  6.0    0.001    0.011    0.026    0.033
 mulliken_charges_bkp                 1  4.0    0.000    0.000    0.027    0.029
 mp_alltoall_z22v                    26 15.0    0.018    0.028    0.018    0.028
 cp_fm_write_unformatted              1  7.0    0.025    0.025    0.025    0.025
 cp_fm_symm                          24  7.0    0.020    0.024    0.020    0.024
 cp_fm_get_submatrix                179  5.0    0.000    0.001    0.019    0.021
 cp_fm_cholesky_restore              39  7.0    0.020    0.021    0.020    0.021
 init_scf_run                         1  3.0    0.000    0.000    0.021    0.021
 rs_pw_transfer_RS2PW_50             13 11.0    0.009    0.011    0.018    0.020
 -------------------------------------------------------------------------------

 The number of warnings for this run is : 1
 
 -------------------------------------------------------------------------------
  **** **** ******  **  PROGRAM ENDED AT                 2021-12-27 12:26:12.117
 ***** ** ***  *** **   PROGRAM RAN ON            srv-p22-13.cbls.ccr.buffalo.ed
 **    ****   ******    PROGRAM RAN BY                                  mshakiba
 ***** **    ** ** **   PROGRAM PROCESS ID                                134102
  **** **  *******  **  PROGRAM STOPPED IN /panfs/panfs.cbls.ccr.buffalo.edu/scr
                                           atch/grp-alexeyak/mohammad/my_reposit
                                           ories/Tutorials_Libra/6_dynamics/2_nb
                                           ra_workflows/7_step2_cp2k/2_xTB/1_des
                                           ktop
