# Projected DOS for atomic kind O at iteration step i = 0, E(Fermi) =     0.263131 a.u.
#     MO Eigenvalue [a.u.]      Occupation                 s                py                pz                px               d-2               d-1                d0               d+1               d+2
       1         -1.897908        2.000000        0.04218200        0.03415195        0.00035160        0.03278416        0.01029498        0.00008603        0.00993926        0.00008417        0.00000711
       2         -1.893882        2.000000        0.03722587        0.04244532        0.00022299        0.04048357        0.00832873        0.00004434        0.01293860        0.00004182        0.00001079
       3         -0.974990        2.000000        0.00753060        0.01126370        0.00000177        0.01264722        0.00346102        0.00001945        0.00013729        0.00001524        0.00285571
       4         -0.972227        2.000000        0.01285694        0.00892473        0.00000676        0.00812115        0.00369371        0.00002668        0.00007392        0.00002906        0.00319027
       5         -0.965746        2.000000        0.01132110        0.01326648        0.00022409        0.01221855        0.00008237        0.00003311        0.01162680        0.00002804        0.00002206
       6         -0.962554        2.000000        0.01697300        0.00782729        0.00009418        0.00868752        0.00001928        0.00001507        0.01247523        0.00001333        0.00027605
       7         -0.960018        2.000000        0.00026783        0.00013229        0.04235769        0.00015343        0.00005777        0.00891967        0.00004956        0.00843264        0.00000006
       8         -0.956080        2.000000        0.00012334        0.00008509        0.03979994        0.00008398        0.00001952        0.01149037        0.00001192        0.01083793        0.00000007
       9         -0.400038        2.000000        0.51645319        0.00050530        0.00003169        0.00047554        0.00088107        0.00000688        0.00006777        0.00000565        0.00000619
      10         -0.360882        2.000000        0.54118285        0.00108524        0.00005335        0.00086828        0.00144966        0.00000234        0.00004297        0.00000229        0.00002283
      11         -0.326904        2.000000        0.65331083        0.00154697        0.00004894        0.00159321        0.00051234        0.00000173        0.00013422        0.00000323        0.00093052
      12         -0.321340        2.000000        0.65217172        0.00228887        0.00005314        0.00214575        0.00066081        0.00000210        0.00013998        0.00000256        0.00086036
      13          0.052304        2.000000        0.01262804        0.29436519        0.00103110        0.28406306        0.00013854        0.00000920        0.00825065        0.00000622        0.00000328
      14          0.063913        2.000000        0.00250313        0.28529996        0.00038576        0.27271903        0.00690595        0.00002680        0.00047168        0.00002918        0.00003260
      15          0.090565        2.000000        0.00001843        0.24725724        0.00007830        0.25909964        0.00000144        0.00000709        0.00000042        0.00001086        0.00185807
      16          0.108530        2.000000        0.00005116        0.00031363        0.60443598        0.00045149        0.00002386        0.00097360        0.00000616        0.00122377        0.00002091
      17          0.111078        2.000000        0.00009067        0.00165881        0.60138392        0.00156097        0.00000531        0.00145614        0.00003662        0.00097406        0.00001326
      18          0.172852        2.000000        0.01682007        0.06278713        0.00261194        0.73860290        0.00325100        0.00000164        0.00010196        0.00001833        0.00187174
      19          0.177341        2.000000        0.01565240        0.74226556        0.00151199        0.06618991        0.00426978        0.00001055        0.00010810        0.00000201        0.00162230
      20          0.198797        2.000000        0.00003314        0.00073297        0.90239557        0.00054507        0.00004889        0.00044775        0.00003613        0.00047705        0.00000048
      21          0.241799        2.000000        0.00006819        0.00141505        0.90412322        0.00097095        0.00014591        0.00003313        0.00027195        0.00003459        0.00000507
      22          0.249889        2.000000        0.00073228        0.43212877        0.00245444        0.41253245        0.00014894        0.00011111        0.00019025        0.00005648        0.00211699
      23          0.258613        2.000000        0.00251634        0.45002070        0.00010480        0.47212161        0.00042216        0.00004042        0.00041442        0.00005206        0.00002573
      24          0.263131        2.000000        0.00035790        0.43460368        0.00131687        0.44457127        0.00007274        0.00000812        0.00018066        0.00004469        0.00167723
      25          0.327150        0.000000        0.00056713        0.00582584        0.00993429        0.00633511        0.01483213        0.00002741        0.03071136        0.00001413        0.00001659
      26          0.336295        0.000000        0.00003545        0.00197609        0.00377889        0.00360136        0.00014138        0.01039542        0.00047587        0.01439857        0.00016495
      27          0.338833        0.000000        0.00003243        0.00649735        0.00233512        0.00587006        0.00003367        0.01355206        0.00014395        0.01189665        0.00082785
      28          0.346159        0.000000        0.00002937        0.09681042        0.00017570        0.09972494        0.00000261        0.00201057        0.00003050        0.00040553        0.01399788
      29          0.354024        0.000000        0.00496109        0.03575616        0.00269568        0.03508940        0.01680097        0.00002098        0.03901705        0.00030169        0.00001668
      30          0.391033        0.000000        0.07076613        0.03649437        0.00046704        0.02616852        0.01408122        0.00001594        0.00970854        0.00002090        0.00000851
      31          0.414389        0.000000        0.00023017        0.09017524        0.00000449        0.10246758        0.00003961        0.00002673        0.00000560        0.00005477        0.00003513
      32          0.503150        0.000000        0.19137737        0.15561239        0.00336365        0.15201973        0.00154743        0.00009150        0.00139884        0.00009109        0.00009455
      33          0.515437        0.000000        0.00734360        0.00077636        0.35737615        0.00083570        0.00019195        0.01273593        0.00025437        0.01210380        0.00012286
      34          0.525315        0.000000        0.01692706        0.00016253        0.35485090        0.00012855        0.00022886        0.01336889        0.00007119        0.01267820        0.00001768
      35          0.558724        0.000000        0.41080017        0.02803510        0.00925269        0.02915766        0.00995776        0.00051404        0.00014518        0.00041834        0.00002624
      36          0.715762        0.000000        0.29958522        0.07076640        0.00029290        0.03820014        0.00005188        0.00001869        0.04575856        0.00000513        0.07544417
      37          0.719953        0.000000        0.30404726        0.02633876        0.00031580        0.07292997        0.00013184        0.00004395        0.04982554        0.00004389        0.07328661
      38          0.771371        0.000000        0.00159295        0.27640908        0.00000371        0.26851098        0.00002421        0.00003410        0.00047636        0.00004827        0.01766923
      39          0.860655        0.000000        0.01980514        0.00683793        0.00057992        0.01058710        0.01164236        0.00005989        0.21550695        0.00004990        0.00001202
      40          0.950941        0.000000        0.04889301        0.27724878        0.00067695        0.28477182        0.03694593        0.00153981        0.00443625        0.00142187        0.00001785
      41          0.965983        0.000000        0.01325125        0.39113258        0.00015370        0.07601162        0.04865478        0.00007496        0.04249046        0.00009308        0.00121581
      42          0.977348        0.000000        0.00923191        0.05071662        0.00014884        0.40784609        0.04503786        0.00108736        0.04839864        0.00151577        0.00123881
      43          0.979145        0.000000        0.05926238        0.17949546        0.00010780        0.10825345        0.14878050        0.00095579        0.00762868        0.00083381        0.00034550
      44          1.117306        0.000000        0.00110045        0.00323108        0.01304246        0.00517895        0.00228588        0.21672461        0.00041949        0.20783977        0.00000140
      45          1.197509        0.000000        0.00062872        0.00043339        0.76529975        0.00022030        0.00009480        0.00225709        0.00129248        0.00199939        0.00032688
      46          1.252955        0.000000        0.00000836        0.01091892        0.00038631        0.00932237        0.00002385        0.00180845        0.00037379        0.00076786        0.21263643
      47          1.288193        0.000000        0.00016535        0.00006614        0.19337643        0.00041941        0.00005134        0.01076586        0.00025640        0.29276328        0.00036045
      48          1.298461        0.000000        0.00009621        0.00008728        0.19729445        0.00005249        0.00003974        0.28900273        0.00071484        0.01260339        0.00069805
      49          1.459521        0.000000        0.32690163        0.02633378        0.00381455        0.02819279        0.11526788        0.00006496        0.04282766        0.00088248        0.00259230
      50          1.480124        0.000000        0.00697214        0.20152090        0.00105872        0.16468212        0.00235704        0.00134144        0.19701435        0.00180985        0.14418911
      51          1.481563        0.000000        0.00390477        0.15741010        0.00058218        0.18638524        0.00186714        0.00096319        0.22051685        0.00030778        0.12667204
      52          1.504767        0.000000        0.00307914        0.01841719        0.00373584        0.02522423        0.00074320        0.00290066        0.46512742        0.00224961        0.01174721
      53          1.623640        0.000000        0.00003236        0.00090062        0.00467552        0.00124940        0.00006729        0.30650236        0.00092851        0.31278317        0.00077996
      54          1.650190        0.000000        0.00130597        0.00142558        0.06713779        0.00470082        0.00164354        0.27657270        0.00379252        0.25049085        0.00642641
      55          1.710261        0.000000        0.00663240        0.01030560        0.54301466        0.04718423        0.01023774        0.08348478        0.00160208        0.02939387        0.01258400
      56          1.718046        0.000000        0.02182937        0.20935676        0.21908990        0.07710735        0.02198809        0.01478234        0.00296054        0.03751828        0.07663166
      57          1.730780        0.000000        0.01420835        0.07169076        0.39586312        0.08356830        0.01963192        0.03439949        0.00110603        0.05768262        0.03505768
      58          1.732711        0.000000        0.00926532        0.30338533        0.03463233        0.44380876        0.00445521        0.00031975        0.00162993        0.01018000        0.05173915
      59          1.741278        0.000000        0.02069174        0.25359807        0.05172951        0.24301448        0.01668727        0.02096941        0.00365263        0.00611208        0.08438618
      60          1.801197        0.000000        0.00033802        0.01027254        0.02850625        0.01040689        0.00011368        0.15755586        0.00048934        0.18510615        0.00260399
      61          1.808807        0.000000        0.00033106        0.00777103        0.75266593        0.00106556        0.00289718        0.00659619        0.00056029        0.01185374        0.00067068
      62          1.874544        0.000000        0.01194972        0.01946578        0.00625071        0.02286933        0.24819089        0.00106586        0.08065292        0.00103517        0.04311683
      63          1.882952        0.000000        0.01295197        0.02036059        0.00296152        0.00874102        0.21952078        0.00045902        0.08408637        0.00014481        0.04955202
      64          1.927013        0.000000        0.00510872        0.36452328        0.00140205        0.34513998        0.13266323        0.00111033        0.02498205        0.00379028        0.00019842
      65          2.069938        0.000000        0.00624037        0.01465659        0.08790720        0.02125151        0.02086402        0.08779706        0.00200796        0.13525385        0.00487321
      66          2.080473        0.000000        0.07573606        0.03236863        0.01169270        0.03419333        0.36963302        0.25558405        0.00251378        0.01789799        0.00265013
      67          2.091356        0.000000        0.04233716        0.10105809        0.01651786        0.11790596        0.26445773        0.09228630        0.00131263        0.00725412        0.02800685
      68          2.099625        0.000000        0.02999149        0.06436965        0.00988367        0.05572866        0.13538026        0.24191135        0.00064481        0.19322499        0.00598639
      69          2.110561        0.000000        0.01313848        0.02759101        0.03083595        0.02477618        0.08213585        0.08976344        0.00089250        0.38208181        0.00539139
      70          2.137629        0.000000        0.01660673        0.13151056        0.01973313        0.12454756        0.13839156        0.01658270        0.00020979        0.03512953        0.06824812
      71          2.149683        0.000000        0.00402631        0.18443753        0.00109279        0.16552805        0.02212201        0.00223673        0.00126988        0.00252359        0.51052234
      72          2.253340        0.000000        0.00102675        0.00368002        0.00238578        0.00476072        0.00112673        0.01507342        0.01217420        0.01253722        0.00053061
      73          2.268827        0.000000        0.00741594        0.02619624        0.00051044        0.02788068        0.00092686        0.00305766        0.08761013        0.00218319        0.01100451
      74          2.278361        0.000000        0.00586576        0.02086193        0.00135368        0.02592681        0.00126642        0.00416935        0.05782270        0.00212522        0.00939150
