# Projected DOS for atomic kind Ti at iteration step i = 0, E(Fermi) =     0.265911 a.u.
#     MO Eigenvalue [a.u.]      Occupation                 s                py                pz                px               d-2               d-1                d0               d+1               d+2               f-3               f-2               f-1                f0               f+1               f+2               f+3
       1         -1.902107        2.000000        0.83429278        0.00000116        0.00002167        0.00000130        0.00094994        0.00000080        0.03734787        0.00000054        0.00000026        0.00000609        0.00000014        0.00000015        0.00000048        0.00000006        0.00000000        0.00001634
       2         -1.898157        2.000000        0.81713860        0.00000191        0.00000246        0.00000231        0.00123170        0.00000184        0.04224194        0.00000143        0.00000062        0.00000688        0.00000003        0.00000043        0.00000024        0.00000069        0.00000000        0.00001555
       3         -0.978964        2.000000        0.00000294        0.44092496        0.00000023        0.48242243        0.00000225        0.00000092        0.00000124        0.00000095        0.00000028        0.01118344        0.00000003        0.00611058        0.00000004        0.00683346        0.00000003        0.01246903
       4         -0.976171        2.000000        0.00000055        0.45521474        0.00001259        0.46379585        0.00000050        0.00000032        0.00000015        0.00000033        0.00000426        0.01382921        0.00000003        0.00770367        0.00000002        0.00761549        0.00000007        0.01360275
       5         -0.969460        2.000000        0.00000024        0.45715074        0.00087427        0.46597954        0.00000034        0.00000053        0.00000026        0.00000055        0.00000874        0.00954406        0.00000013        0.00478270        0.00000410        0.00449354        0.00000002        0.00914663
       6         -0.966314        2.000000        0.00000950        0.48919865        0.00084562        0.43103147        0.00000553        0.00000011        0.00000387        0.00000009        0.00000066        0.01178125        0.00000029        0.00594977        0.00000226        0.00551120        0.00000000        0.01081478
       7         -0.963453        2.000000        0.00000541        0.00038037        0.93878937        0.00037830        0.00000188        0.00000018        0.00000209        0.00000053        0.00000001        0.00001109        0.00005030        0.00000539        0.00565297        0.00000501        0.00000002        0.00001116
       8         -0.959520        2.000000        0.00000098        0.00034313        0.94028531        0.00032861        0.00000009        0.00000024        0.00000143        0.00000039        0.00000000        0.00001130        0.00005422        0.00000473        0.00332720        0.00000679        0.00000004        0.00001454
       9         -0.396466        2.000000        0.46953767        0.00048963        0.00003910        0.00048609        0.00014657        0.00005576        0.00949484        0.00002112        0.00000139        0.00014479        0.00002352        0.00003844        0.00000134        0.00003448        0.00000000        0.00013371
      10         -0.355418        2.000000        0.03700311        0.00226025        0.00007305        0.00284781        0.20220662        0.00003122        0.20150194        0.00007324        0.00010425        0.00056124        0.00001285        0.00026097        0.00000151        0.00028481        0.00000000        0.00078905
      11         -0.326676        2.000000        0.00004330        0.13812100        0.00002453        0.10178368        0.00001021        0.00014498        0.00000850        0.00014491        0.00016434        0.04051682        0.00000770        0.02026042        0.00000055        0.01550753        0.00000010        0.03057287
      12         -0.322903        2.000000        0.00235213        0.10058083        0.00004202        0.13162952        0.00526652        0.00000493        0.00348407        0.00000374        0.00003361        0.03108289        0.00002283        0.01419261        0.00000147        0.01929743        0.00000003        0.03876907
      13          0.054719        2.000000        0.12837153        0.00006508        0.00001008        0.00009602        0.14894194        0.00005372        0.13046951        0.00000430        0.00008331        0.00001398        0.00000478        0.00005650        0.00000041        0.00008001        0.00000000        0.00004557
      14          0.067539        2.000000        0.01448974        0.00007263        0.00001778        0.00003209        0.07251429        0.00014662        0.35250534        0.00021676        0.00003959        0.00000651        0.00000323        0.00007722        0.00000128        0.00005070        0.00000000        0.00000236
      15          0.089694        2.000000        0.00000222        0.00016659        0.00000000        0.00012428        0.00018894        0.00001419        0.00001107        0.00003467        0.49403482        0.00003495        0.00000000        0.00001128        0.00000000        0.00001926        0.00000760        0.00002443
      16          0.116693        2.000000        0.00008031        0.00001658        0.00058648        0.00000905        0.00007273        0.23431831        0.00060192        0.15606234        0.00000035        0.00000489        0.00019449        0.00000165        0.00001762        0.00000750        0.00000052        0.00000618
      17          0.118104        2.000000        0.00004117        0.00014094        0.00002183        0.00015229        0.00001767        0.16305595        0.00022085        0.22854575        0.00002390        0.00005465        0.00001001        0.00006431        0.00000080        0.00005497        0.00000401        0.00005706
      18          0.175153        2.000000        0.00007227        0.07899372        0.00000952        0.02952103        0.00013802        0.00013006        0.00005251        0.00014230        0.00060045        0.02939354        0.00000048        0.00568640        0.00000039        0.02157668        0.00000830        0.00882672
      19          0.178233        2.000000        0.00018552        0.02621855        0.00000448        0.07990280        0.00056329        0.00011709        0.00009487        0.00009881        0.00029121        0.00771759        0.00000158        0.02114973        0.00000000        0.00569673        0.00000292        0.02919108
      20          0.199084        2.000000        0.00036899        0.00001510        0.07344841        0.00005679        0.00066322        0.00116631        0.00041692        0.00050278        0.00000049        0.00001399        0.00853996        0.00000910        0.00290351        0.00000580        0.00000533        0.00001596
      21          0.244370        2.000000        0.00027496        0.00005407        0.02245847        0.00000767        0.00310135        0.00081539        0.00136199        0.00095109        0.00000541        0.00002135        0.05247189        0.00000226        0.00216279        0.00002616        0.00001218        0.00000034
      22          0.255040        2.000000        0.00001423        0.00112688        0.00000281        0.00104746        0.00009312        0.00144516        0.00005453        0.00201957        0.05118840        0.00410467        0.00004160        0.01526537        0.00000059        0.01728071        0.00002192        0.00366427
      23          0.258679        2.000000        0.00019487        0.00132731        0.00000826        0.00153312        0.00175149        0.00085238        0.00111997        0.00080126        0.00005670        0.00488979        0.00001926        0.02439089        0.00000070        0.02095687        0.00000397        0.00435961
      24          0.265911        2.000000        0.00004169        0.00028545        0.00000012        0.00018205        0.00016569        0.00018307        0.00005925        0.00009335        0.13223604        0.00115817        0.00000588        0.00496337        0.00000005        0.00506398        0.00001238        0.00096361
      25          0.320901        0.000000        0.00413606        0.00003095        0.00016485        0.00007206        0.72675489        0.00109730        0.20402209        0.00010890        0.00000796        0.00000476        0.00032825        0.00011870        0.00001541        0.00001426        0.00000009        0.00003389
      26          0.333194        0.000000        0.00087624        0.00002589        0.00002059        0.00002287        0.00100210        0.47227436        0.01089786        0.46390506        0.01726441        0.00001894        0.00005504        0.00003600        0.00000109        0.00001392        0.00000014        0.00001086
      27          0.335528        0.000000        0.00039965        0.00001622        0.00000390        0.00001584        0.00132488        0.37792758        0.00494999        0.37370645        0.17932144        0.00001220        0.00000059        0.00006826        0.00000024        0.00006889        0.00000233        0.00001431
      28          0.338251        0.000000        0.00005209        0.00003436        0.00000252        0.00001931        0.00013282        0.08115264        0.00064083        0.14388380        0.59943362        0.00004297        0.00000099        0.00004323        0.00000013        0.00011914        0.00000885        0.00001629
      29          0.342571        0.000000        0.06922552        0.00003421        0.00006423        0.00001945        0.03507445        0.01744565        0.74025353        0.00394116        0.00001425        0.00002092        0.00006861        0.00007936        0.00000276        0.00011684        0.00000000        0.00001691
      30          0.392202        0.000000        0.00736930        0.00001891        0.00004009        0.00000349        0.77911613        0.00034390        0.05724980        0.00009643        0.00304665        0.00002514        0.00002103        0.00000422        0.00000127        0.00002615        0.00000008        0.00000246
      31          0.411862        0.000000        0.00001075        0.00000651        0.00000007        0.00000442        0.00274519        0.00030549        0.00025057        0.00010574        0.80757684        0.00000039        0.00000009        0.00001183        0.00000000        0.00000163        0.00001126        0.00000334
      32          0.502709        0.000000        0.00029656        0.00037264        0.00000686        0.00031926        0.00216621        0.31624079        0.00920265        0.28411228        0.00000285        0.00010361        0.00000225        0.00002714        0.00000117        0.00002927        0.00000494        0.00007150
      33          0.509050        0.000000        0.03402975        0.00000746        0.00001045        0.00004416        0.06374667        0.13537019        0.16827159        0.17625379        0.00002486        0.00000346        0.00002467        0.00001764        0.00000103        0.00000525        0.00000039        0.00003933
      34          0.512205        0.000000        0.05862919        0.00008701        0.00006490        0.00004790        0.06479597        0.16564037        0.12243410        0.13732923        0.00002464        0.00001648        0.00000119        0.00003727        0.00000130        0.00000894        0.00000092        0.00003435
      35          0.552724        0.000000        0.20934956        0.00002528        0.00009256        0.00000917        0.01896942        0.00501130        0.21980377        0.00222623        0.00003783        0.00000340        0.00002261        0.00004984        0.00000471        0.00003618        0.00000002        0.00001599
      36          0.713508        0.000000        0.00010775        0.19412215        0.00015269        0.08858226        0.00005790        0.00002928        0.00007973        0.00006574        0.00053726        0.07592962        0.00003509        0.04265926        0.00000302        0.03826963        0.00000167        0.03106154
      37          0.716048        0.000000        0.00002106        0.09079195        0.00003238        0.19249903        0.00004511        0.00050292        0.00004152        0.00045987        0.00005985        0.03003432        0.00003919        0.04072195        0.00000162        0.04304966        0.00000528        0.07575858
      38          0.781664        0.000000        0.00010365        0.00014049        0.00000001        0.00025611        0.00023693        0.00003737        0.00020147        0.00001791        0.42145969        0.00002208        0.00000013        0.00001511        0.00000000        0.00014562        0.00005662        0.00005722
      39          0.858241        0.000000        0.10880742        0.00001118        0.00044943        0.00002230        0.39634878        0.00003066        0.22330619        0.00026852        0.00012723        0.00000949        0.00004480        0.00000473        0.00000783        0.00000554        0.00000008        0.00000985
      40          0.939722        0.000000        0.24186494        0.00229772        0.00218602        0.00073452        0.01595384        0.00006586        0.18995508        0.00004894        0.00001168        0.00010123        0.00019235        0.00057114        0.00010814        0.00022796        0.00000036        0.00002983
      41          0.953485        0.000000        0.23867734        0.00000356        0.00004687        0.00362730        0.01566047        0.00020155        0.14720881        0.00011236        0.00002787        0.00003349        0.00000549        0.00024287        0.00000574        0.00037351        0.00000017        0.00020157
      42          0.977082        0.000000        0.00300640        0.05864634        0.00069066        0.25220517        0.00042539        0.00003367        0.00465489        0.00016234        0.00004158        0.00553209        0.00002410        0.03082372        0.00002954        0.05118107        0.00001457        0.01591281
      43          0.984268        0.000000        0.00100183        0.25182704        0.00091997        0.05601488        0.00008246        0.00023604        0.00027001        0.00007771        0.00007660        0.01479448        0.00005070        0.05171103        0.00003751        0.02769213        0.00005025        0.00554314
      44          1.103886        0.000000        0.00088770        0.00023298        0.45621093        0.00000914        0.00047630        0.00010252        0.00044492        0.00029167        0.00000023        0.00000096        0.08064423        0.00016972        0.01493271        0.00028668        0.00002076        0.00000162
      45          1.198457        0.000000        0.00029936        0.00001897        0.16576512        0.00005359        0.00022526        0.00008595        0.00045299        0.00039729        0.00000587        0.00014641        0.06373945        0.00003247        0.00467620        0.00025733        0.00004002        0.00003059
      46          1.249319        0.000000        0.00001036        0.00005444        0.00000172        0.00009384        0.00002809        0.00010556        0.00001544        0.00019837        0.74912436        0.00001155        0.00000130        0.00000479        0.00000005        0.00003897        0.00000465        0.00003071
      47          1.296984        0.000000        0.00003281        0.00001704        0.00018223        0.00006280        0.00007518        0.30335690        0.00008308        0.19728560        0.00000843        0.00001428        0.00002082        0.00003400        0.00003828        0.00005439        0.00002427        0.00004096
      48          1.304656        0.000000        0.00003496        0.00004374        0.00022893        0.00000260        0.00004027        0.18397693        0.00000650        0.31319564        0.00083779        0.00008099        0.00007747        0.00012589        0.00002574        0.00011469        0.00004989        0.00004731
      49          1.468823        0.000000        0.03703534        0.00022342        0.00029505        0.00249267        0.14772421        0.00048355        0.26305012        0.00001294        0.00001051        0.00316999        0.00046698        0.00161732        0.00001849        0.00059252        0.00000672        0.00211240
      50          1.481375        0.000000        0.00071143        0.01641677        0.00026381        0.06210756        0.00422201        0.00043006        0.00608096        0.00078468        0.00002646        0.08394141        0.00003275        0.02781101        0.00006188        0.01532905        0.00026257        0.06681835
      51          1.482429        0.000000        0.00271990        0.05584834        0.00009654        0.01456553        0.05889640        0.00046835        0.00151390        0.00023375        0.00000581        0.05445126        0.00027528        0.01147405        0.00000883        0.02623417        0.00019703        0.08297244
      52          1.499065        0.000000        0.02609909        0.00597156        0.00044712        0.00238972        0.38555434        0.00057189        0.01012899        0.00134755        0.00000686        0.00779817        0.00053784        0.00175623        0.00012162        0.00309475        0.00002867        0.01059962
      53          1.624996        0.000000        0.00000033        0.00006610        0.00099424        0.00008677        0.00000089        0.00018251        0.00000158        0.00000585        0.00023589        0.00005579        0.00024249        0.00001875        0.00023398        0.00000993        0.36645497        0.00063603
      54          1.650243        0.000000        0.00035805        0.00005138        0.28743979        0.00021925        0.00072275        0.00142853        0.00034949        0.00416416        0.00000121        0.00070269        0.01694847        0.00380687        0.07584286        0.00085173        0.00108691        0.00018777
      55          1.698562        0.000000        0.00013793        0.00059722        0.00294428        0.00060817        0.00056083        0.09338966        0.00005763        0.15696420        0.00001303        0.00022545        0.00015995        0.00082640        0.00081629        0.00207738        0.00095642        0.00008487
      56          1.709561        0.000000        0.00028089        0.00017735        0.00177807        0.00003737        0.00055706        0.15732178        0.00025022        0.08342468        0.00002339        0.00001035        0.00112938        0.00249329        0.00041968        0.00149296        0.00042880        0.00008922
      57          1.735712        0.000000        0.00000174        0.00010095        0.00004291        0.00006640        0.00007324        0.00041745        0.00004903        0.00154762        0.00453675        0.00012370        0.00001256        0.00345302        0.00001415        0.00586247        0.00285506        0.00044690
      58          1.754320        0.000000        0.00002708        0.00472694        0.00228879        0.00580975        0.00026155        0.00096471        0.00008993        0.00079293        0.00002880        0.02168055        0.00109528        0.14567436        0.00094224        0.16396341        0.00002765        0.02854244
      59          1.766607        0.000000        0.00014148        0.00406078        0.00083090        0.00452962        0.00005445        0.00181513        0.00008693        0.00158480        0.00001404        0.01845721        0.00115093        0.17924127        0.00038018        0.16144642        0.00186402        0.01640523
      60          1.806042        0.000000        0.00026510        0.00003434        0.01361708        0.00003750        0.00009261        0.00016125        0.00029101        0.00031485        0.00000042        0.00023834        0.18493507        0.00006872        0.01299452        0.00609886        0.00329189        0.00120343
      61          1.818867        0.000000        0.00000311        0.00027192        0.00007708        0.00001863        0.00000127        0.00031771        0.00000440        0.00051116        0.00010709        0.00026675        0.00094725        0.00015187        0.00011159        0.00030081        0.64001661        0.00036059
      62          1.872324        0.000000        0.00005538        0.08977867        0.00003390        0.02696385        0.00005762        0.00042411        0.00005355        0.00022415        0.00048118        0.21697919        0.00005188        0.08689059        0.00000238        0.03860008        0.00060824        0.11123549
      63          1.879107        0.000000        0.00010908        0.02855405        0.00006578        0.08474721        0.00021798        0.00017583        0.00008286        0.00031170        0.00006184        0.11862105        0.00009533        0.05530369        0.00004271        0.11193959        0.00029200        0.20244366
      64          1.931514        0.000000        0.03333448        0.00012563        0.00073732        0.00008629        0.06837828        0.00024769        0.01669399        0.00003890        0.00000282        0.00264030        0.00122503        0.00083847        0.00064380        0.00094493        0.00000031        0.00104321
      65          2.037846        0.000000        0.00006391        0.01561424        0.01621136        0.01457795        0.00009434        0.00008974        0.00014828        0.00133258        0.00010118        0.01868819        0.15365332        0.12266855        0.00493129        0.14580738        0.00000942        0.01387837
      66          2.048938        0.000000        0.00005332        0.00553465        0.04637476        0.01007355        0.00009803        0.00412228        0.00018703        0.00039385        0.00008795        0.00003091        0.42921928        0.12015920        0.01527590        0.00565375        0.00005035        0.01361468
      67          2.078645        0.000000        0.00019769        0.01620745        0.00905894        0.01261520        0.00001603        0.00483369        0.00027769        0.00246498        0.00017344        0.02896686        0.08507337        0.10139292        0.00430838        0.20222994        0.00004774        0.01243681
      68          2.091483        0.000000        0.00134701        0.00048420        0.00133737        0.00079765        0.00035245        0.01321815        0.00017529        0.17669293        0.00000813        0.00002373        0.00716671        0.00255069        0.00205975        0.00093583        0.00052807        0.00124185
      69          2.102360        0.000000        0.00026161        0.00070226        0.00486434        0.00030927        0.00075023        0.17817217        0.00011443        0.00955431        0.00006874        0.00184288        0.02841613        0.00021280        0.00179288        0.00544791        0.00102418        0.00009654
      70          2.139054        0.000000        0.02186947        0.00006080        0.00006037        0.00010547        0.00372080        0.00047189        0.00721535        0.00121030        0.03627584        0.00080084        0.00049607        0.00196847        0.00019375        0.00008257        0.00019035        0.00019135
      71          2.146162        0.000000        0.03571553        0.00010972        0.00005630        0.00018340        0.00982585        0.00022593        0.01503382        0.00110748        0.01965562        0.00031460        0.00065597        0.00077368        0.00051915        0.00012884        0.00010427        0.00119363
      72          2.260751        0.000000        0.00027773        0.01630246        0.01924224        0.00404718        0.00050728        0.00088543        0.00012477        0.00055501        0.00001726        0.03646455        0.01956719        0.00097453        0.87188768        0.00392071        0.00008669        0.00234543
      73          2.280699        0.000000        0.00058636        0.02326314        0.00015121        0.21026592        0.00000571        0.00001880        0.00006308        0.00092450        0.00007639        0.00235449        0.00018838        0.04846848        0.00302610        0.00137538        0.00043343        0.60201995
      74          2.284304        0.000000        0.00041238        0.19075740        0.00191277        0.03522523        0.00019352        0.00067113        0.00015629        0.00001034        0.00022920        0.56291076        0.00231048        0.00201193        0.06452048        0.04574289        0.00006573        0.00749061
