# Projected DOS for atomic kind O at iteration step i = 0, E(Fermi) =     0.272096 a.u.
#     MO Eigenvalue [a.u.]      Occupation                 s                py                pz                px               d-2               d-1                d0               d+1               d+2
       1         -1.906118        2.000000        0.04200625        0.03017137        0.00001526        0.02991939        0.01345774        0.00000429        0.00706727        0.00000426        0.00000044
       2         -1.903963        2.000000        0.02958406        0.04597393        0.00001502        0.04552072        0.00872169        0.00000252        0.01071348        0.00000243        0.00000101
       3         -0.982864        2.000000        0.01074816        0.01174258        0.00000033        0.01269777        0.00491707        0.00000075        0.00030231        0.00000080        0.00240272
       4         -0.981387        2.000000        0.01322805        0.01069425        0.00000037        0.00967052        0.00508978        0.00000122        0.00007969        0.00000158        0.00261721
       5         -0.973367        2.000000        0.00972025        0.01384303        0.00001135        0.01316300        0.00000047        0.00000187        0.00915441        0.00000171        0.00024420
       6         -0.971522        2.000000        0.01221947        0.01069250        0.00000369        0.01155877        0.00003686        0.00000102        0.00912842        0.00000093        0.00044424
       7         -0.966897        2.000000        0.00001629        0.00001222        0.03750407        0.00000798        0.00000327        0.00631599        0.00000221        0.00621671        0.00000006
       8         -0.964626        2.000000        0.00001862        0.00001561        0.02717167        0.00001692        0.00000165        0.01017546        0.00000110        0.01003180        0.00000023
       9         -0.392973        2.000000        0.51928819        0.00011049        0.00000138        0.00010571        0.00060554        0.00000021        0.00000782        0.00000016        0.00000071
      10         -0.350021        2.000000        0.55734666        0.00032141        0.00000383        0.00030541        0.00106846        0.00000005        0.00000044        0.00000003        0.00000431
      11         -0.325616        2.000000        0.64468506        0.00026968        0.00000350        0.00030137        0.00020626        0.00000013        0.00016126        0.00000021        0.00101291
      12         -0.324195        2.000000        0.64528097        0.00038577        0.00000360        0.00035748        0.00022560        0.00000018        0.00015611        0.00000020        0.00099641
      13          0.057133        2.000000        0.00590011        0.28596137        0.00003836        0.28360684        0.00008014        0.00000049        0.00699783        0.00000037        0.00000025
      14          0.070509        2.000000        0.00074925        0.27304547        0.00003398        0.27033874        0.00525163        0.00000165        0.00008022        0.00000207        0.00000210
      15          0.088779        2.000000        0.00000090        0.24875701        0.00000087        0.25153644        0.00000012        0.00000031        0.00000005        0.00000076        0.00153528
      16          0.125346        2.000000        0.00000400        0.00004813        0.60468243        0.00006384        0.00000176        0.00059526        0.00000114        0.00175055        0.00000118
      17          0.125548        2.000000        0.00000248        0.00005602        0.60452738        0.00003548        0.00000031        0.00178542        0.00000172        0.00055377        0.00000130
      18          0.177869        2.000000        0.01220836        0.06665293        0.00013959        0.74137092        0.00198035        0.00000027        0.00018364        0.00000153        0.00115386
      19          0.178972        2.000000        0.01188414        0.74290784        0.00009529        0.06684028        0.00222050        0.00000081        0.00018070        0.00000008        0.00109824
      20          0.199688        2.000000        0.00000242        0.00004944        0.91832536        0.00002344        0.00000316        0.00028853        0.00000303        0.00029409        0.00000003
      21          0.247364        2.000000        0.00000489        0.00014538        0.92430218        0.00002542        0.00001145        0.00002067        0.00002199        0.00002388        0.00000045
      22          0.259165        2.000000        0.00009770        0.60321362        0.00013727        0.34174522        0.00000158        0.00000632        0.00023774        0.00000415        0.00010440
      23          0.259654        2.000000        0.00023828        0.34262247        0.00005849        0.60433669        0.00000566        0.00000138        0.00023874        0.00000388        0.00000571
      24          0.272096        2.000000        0.00000197        0.41871536        0.00000350        0.42307329        0.00000325        0.00000380        0.00000541        0.00000085        0.00431577
      25          0.314033        0.000000        0.00103899        0.00661494        0.00062706        0.00577018        0.01744681        0.00000475        0.02673610        0.00000070        0.00000132
      26          0.328340        0.000000        0.00000463        0.07784405        0.00004751        0.07823979        0.00001409        0.00054224        0.00004927        0.00002376        0.01818701
      27          0.329415        0.000000        0.00399026        0.03129905        0.00043215        0.03163806        0.01159676        0.00096956        0.03510701        0.00328867        0.00007204
      28          0.330647        0.000000        0.00073984        0.00684248        0.00197210        0.00659841        0.00208720        0.01187154        0.00612291        0.01069213        0.00017176
      29          0.331862        0.000000        0.00006964        0.00212159        0.00198879        0.00201871        0.00018156        0.01372368        0.00051249        0.01331420        0.00021819
      30          0.393480        0.000000        0.08370554        0.02344197        0.00003985        0.01989286        0.01636943        0.00000111        0.00612119        0.00000125        0.00000105
      31          0.409492        0.000000        0.00004370        0.09053064        0.00000056        0.09452933        0.00000686        0.00000073        0.00000079        0.00000280        0.00007715
      32          0.490539        0.000000        0.00004427        0.00013358        0.36727370        0.00012777        0.00000582        0.00951674        0.00001113        0.00939403        0.00000701
      33          0.493867        0.000000        0.00008922        0.00036334        0.36664428        0.00036042        0.00000414        0.00993514        0.00000068        0.00977482        0.00000025
      34          0.518374        0.000000        0.06280198        0.18440334        0.00071032        0.18412827        0.00001722        0.00002515        0.00222275        0.00002242        0.00000853
      35          0.547886        0.000000        0.59162087        0.00873657        0.00022186        0.00891347        0.01101475        0.00001035        0.00014922        0.00000852        0.00000110
      36          0.711298        0.000000        0.32304771        0.07051649        0.00003076        0.00196156        0.00001483        0.00000107        0.05160482        0.00000038        0.07831391
      37          0.711662        0.000000        0.32156692        0.00124015        0.00001298        0.07326433        0.00002119        0.00000143        0.05228183        0.00000129        0.07753356
      38          0.792911        0.000000        0.00009326        0.29028719        0.00000025        0.28796397        0.00000194        0.00000296        0.00005937        0.00000457        0.01253480
      39          0.855024        0.000000        0.02231845        0.00812620        0.00003799        0.01005686        0.00721922        0.00000232        0.22860158        0.00000188        0.00000212
      40          0.916989        0.000000        0.04171168        0.07760477        0.00001157        0.07406633        0.20698937        0.00006855        0.00130984        0.00006587        0.00000203
      41          0.938167        0.000000        0.04710122        0.32996409        0.00001813        0.32750573        0.00370152        0.00004655        0.00196733        0.00004840        0.00000247
      42          0.988927        0.000000        0.00401115        0.39907605        0.00002650        0.10786190        0.03102608        0.00003612        0.04800605        0.00004327        0.00153571
      43          0.991717        0.000000        0.00346073        0.11146854        0.00000649        0.40238961        0.02922457        0.00004239        0.04773241        0.00007896        0.00174547
      44          1.090497        0.000000        0.00003862        0.00018216        0.00964361        0.00048642        0.00007143        0.21584145        0.00001288        0.21367716        0.00000020
      45          1.199180        0.000000        0.00005855        0.00005272        0.75203107        0.00001925        0.00000571        0.00026696        0.00011542        0.00026766        0.00003195
      46          1.245531        0.000000        0.00000048        0.00647833        0.00001137        0.00604794        0.00000244        0.00009202        0.00002516        0.00004225        0.25403932
      47          1.308525        0.000000        0.00001673        0.00000601        0.17817499        0.00003135        0.00000279        0.02407736        0.00002983        0.29689460        0.00002864
      48          1.311592        0.000000        0.00000703        0.00000388        0.17808353        0.00000524        0.00000436        0.29712811        0.00006869        0.02518786        0.00003929
      49          1.483211        0.000000        0.12736863        0.16267506        0.00027264        0.08696214        0.04334605        0.00003021        0.13974919        0.00014324        0.07734831
      50          1.484522        0.000000        0.01567633        0.09734462        0.00005934        0.21626867        0.00417455        0.00014890        0.23726947        0.00003100        0.11125829
      51          1.485009        0.000000        0.15992488        0.11688219        0.00016094        0.06437493        0.05629085        0.00000282        0.15060147        0.00004789        0.05047310
      52          1.490909        0.000000        0.01630911        0.03200604        0.00031547        0.04363689        0.00605137        0.00016797        0.43451553        0.00010145        0.02115914
      53          1.626916        0.000000        0.00000154        0.00007892        0.00039812        0.00009386        0.00001156        0.31581976        0.00010041        0.31762957        0.00006786
      54          1.652613        0.000000        0.00005029        0.00008258        0.07967584        0.00019581        0.00009451        0.26018907        0.00011741        0.25248257        0.00021789
      55          1.679684        0.000000        0.00007931        0.00021476        0.59897658        0.00018270        0.00027607        0.09679094        0.00011226        0.03159818        0.00004435
      56          1.684603        0.000000        0.00011620        0.00009222        0.60324760        0.00002954        0.00010019        0.03145154        0.00013413        0.09755813        0.00005482
      57          1.738902        0.000000        0.00004007        0.48007499        0.00011607        0.48942366        0.00000636        0.00020925        0.00004719        0.00028223        0.02665222
      58          1.793420        0.000000        0.03040553        0.24966447        0.04960550        0.17741115        0.04019726        0.00049282        0.00280696        0.00015795        0.08711606
      59          1.799270        0.000000        0.02682169        0.11909224        0.11384973        0.27087178        0.02930932        0.00058166        0.00345846        0.00032298        0.08012477
      60          1.802438        0.000000        0.00545243        0.09041680        0.59464444        0.01271726        0.00760658        0.00117957        0.00066827        0.00112519        0.01820174
      61          1.841128        0.000000        0.00009274        0.00048345        0.00011679        0.00043819        0.00059820        0.15874110        0.00000187        0.16514843        0.00017043
      62          1.863846        0.000000        0.01293015        0.01625168        0.00038887        0.00398259        0.33326919        0.00016024        0.05845820        0.00025378        0.01101662
      63          1.867281        0.000000        0.01242219        0.00376800        0.00010391        0.01353804        0.31422508        0.00007537        0.06163704        0.00003204        0.01470193
      64          1.939866        0.000000        0.00436116        0.37211970        0.00022269        0.36601676        0.11779356        0.00004504        0.00373133        0.00048267        0.00006979
      65          1.991067        0.000000        0.06465294        0.16410955        0.00140350        0.13760733        0.07011951        0.00044809        0.03933810        0.00021488        0.05757226
      66          2.002831        0.000000        0.05701570        0.12959179        0.01499511        0.14475798        0.07114450        0.00266052        0.03222190        0.00213966        0.04796219
      67          2.018772        0.000000        0.00633109        0.01271306        0.13581805        0.02026847        0.00920001        0.02055307        0.00333273        0.02093358        0.00536939
      68          2.101986        0.000000        0.00011158        0.00010615        0.05438490        0.00008117        0.00047379        0.75476996        0.00007240        0.00546945        0.00015467
      69          2.105640        0.000000        0.00003153        0.00010721        0.05510872        0.00056428        0.00009289        0.00592476        0.00006672        0.75279117        0.00007099
      70          2.139480        0.000000        0.00013246        0.14475048        0.00000203        0.15110940        0.00052029        0.00022128        0.00009623        0.00010625        0.64837202
      71          2.193582        0.000000        0.11840395        0.02265946        0.00008464        0.01799665        0.75977312        0.00044477        0.00660683        0.00002743        0.00046167
      72          2.261206        0.000000        0.00041457        0.00033345        0.00305340        0.00034895        0.00084237        0.00024359        0.00037119        0.00011533        0.00009283
      73          2.280385        0.000000        0.02481911        0.01743901        0.00017857        0.01970983        0.02541289        0.00002553        0.00342439        0.00001150        0.00685642
      74          2.281472        0.000000        0.02191571        0.02007211        0.00001705        0.01890333        0.02362152        0.00001344        0.00516160        0.00006564        0.00467925
