# Projected DOS for atomic kind Ti at iteration step i = 0, E(Fermi) =     0.270093 a.u.
#     MO Eigenvalue [a.u.]      Occupation                 s                py                pz                px               d-2               d-1                d0               d+1               d+2               f-3               f-2               f-1                f0               f+1               f+2               f+3
       1         -1.905106        2.000000        0.83815830        0.00000034        0.00000679        0.00000046        0.00084831        0.00000029        0.03615606        0.00000019        0.00000007        0.00000215        0.00000005        0.00000004        0.00000018        0.00000002        0.00000000        0.00000601
       2         -1.902199        2.000000        0.81682580        0.00000059        0.00000072        0.00000088        0.00118921        0.00000067        0.04286285        0.00000053        0.00000021        0.00000236        0.00000001        0.00000017        0.00000010        0.00000024        0.00000000        0.00000552
       3         -0.981847        2.000000        0.00000102        0.44130917        0.00000240        0.47922501        0.00000087        0.00000032        0.00000050        0.00000033        0.00000011        0.01141262        0.00000001        0.00627864        0.00000002        0.00700672        0.00000001        0.01271279
       4         -0.979815        2.000000        0.00000022        0.45898187        0.00000650        0.45890539        0.00000020        0.00000010        0.00000007        0.00000010        0.00000143        0.01363110        0.00000001        0.00762486        0.00000001        0.00738400        0.00000002        0.01315917
       5         -0.972336        2.000000        0.00000007        0.45788237        0.00043067        0.46608557        0.00000012        0.00000025        0.00000007        0.00000026        0.00000313        0.00970508        0.00000005        0.00499090        0.00000220        0.00472358        0.00000000        0.00935888
       6         -0.969928        2.000000        0.00000263        0.48391489        0.00076482        0.43805013        0.00000203        0.00000006        0.00000090        0.00000005        0.00000025        0.01122332        0.00000012        0.00579053        0.00000338        0.00551466        0.00000000        0.01057370
       7         -0.966016        2.000000        0.00000117        0.00013564        0.94245854        0.00027077        0.00000050        0.00000006        0.00000068        0.00000017        0.00000000        0.00000533        0.00004944        0.00000288        0.00607988        0.00000262        0.00000001        0.00000602
       8         -0.963046        2.000000        0.00000033        0.00031174        0.94638832        0.00032705        0.00000002        0.00000005        0.00000048        0.00000014        0.00000000        0.00000863        0.00005672        0.00000413        0.00300858        0.00000605        0.00000002        0.00001171
       9         -0.393877        2.000000        0.47301352        0.00017846        0.00001032        0.00018276        0.00008371        0.00001952        0.00642779        0.00000646        0.00000045        0.00005120        0.00000637        0.00001709        0.00000036        0.00001526        0.00000000        0.00004836
      10         -0.351412        2.000000        0.03103012        0.00109955        0.00001776        0.00134381        0.21903917        0.00000955        0.18920912        0.00002610        0.00003976        0.00026786        0.00000387        0.00015116        0.00000043        0.00016283        0.00000000        0.00036623
      11         -0.326016        2.000000        0.00001258        0.13756328        0.00000832        0.10427947        0.00000253        0.00004014        0.00000314        0.00004019        0.00005720        0.03965244        0.00000280        0.02213158        0.00000019        0.01721327        0.00000003        0.03073237
      12         -0.323885        2.000000        0.00090847        0.10377070        0.00001554        0.13427403        0.00252624        0.00000102        0.00157130        0.00000089        0.00001125        0.03108462        0.00000871        0.01638161        0.00000051        0.02153201        0.00000001        0.03883677
      13          0.056499        2.000000        0.13946128        0.00002201        0.00000289        0.00003070        0.14031380        0.00002533        0.13504379        0.00000173        0.00002386        0.00000580        0.00000186        0.00001915        0.00000022        0.00002715        0.00000000        0.00001697
      14          0.069822        2.000000        0.01026355        0.00002420        0.00000462        0.00001098        0.08639944        0.00005231        0.35066960        0.00008056        0.00001904        0.00000177        0.00000131        0.00002622        0.00000060        0.00001736        0.00000000        0.00000176
      15          0.089015        2.000000        0.00000068        0.00005417        0.00000000        0.00003825        0.00006346        0.00000516        0.00000571        0.00000838        0.49696580        0.00001018        0.00000000        0.00000431        0.00000000        0.00000690        0.00000192        0.00000662
      16          0.123087        2.000000        0.00002556        0.00000921        0.00018719        0.00000490        0.00002505        0.26578147        0.00024014        0.12609444        0.00000001        0.00000303        0.00006333        0.00000175        0.00000561        0.00000380        0.00000039        0.00000252
      17          0.123554        2.000000        0.00001872        0.00003620        0.00002454        0.00004138        0.00000441        0.12987698        0.00009182        0.26256498        0.00000425        0.00001395        0.00000955        0.00001692        0.00000068        0.00001415        0.00000099        0.00001516
      18          0.177060        2.000000        0.00002510        0.08220517        0.00000403        0.02664965        0.00005301        0.00005733        0.00002018        0.00004786        0.00019291        0.03123993        0.00000010        0.00658152        0.00000027        0.02190483        0.00000248        0.00704376
      19          0.178808        2.000000        0.00006953        0.02479716        0.00000228        0.08273276        0.00021546        0.00002905        0.00003580        0.00003706        0.00008662        0.00640433        0.00000080        0.02167008        0.00000004        0.00660813        0.00000087        0.03103924
      20          0.199487        2.000000        0.00010430        0.00000577        0.07158093        0.00002309        0.00018985        0.00047064        0.00015168        0.00021752        0.00000005        0.00000456        0.00735800        0.00000391        0.00272063        0.00000285        0.00000161        0.00000679
      21          0.246534        2.000000        0.00010165        0.00001740        0.01930326        0.00000269        0.00097040        0.00028007        0.00056461        0.00034072        0.00000032        0.00000740        0.05393241        0.00000033        0.00193366        0.00000903        0.00000422        0.00000030
      22          0.258199        2.000000        0.00001072        0.00130332        0.00000028        0.00102777        0.00005286        0.00049944        0.00003813        0.00064999        0.01151820        0.00510180        0.00001338        0.01629099        0.00000008        0.02082771        0.00000581        0.00468188
      23          0.259277        2.000000        0.00005269        0.00111745        0.00000140        0.00139261        0.00051133        0.00025804        0.00036870        0.00020235        0.00004535        0.00510898        0.00001176        0.02311643        0.00000020        0.01782483        0.00000146        0.00480096
      24          0.270093        2.000000        0.00001370        0.00006341        0.00000002        0.00004236        0.00005636        0.00003878        0.00002973        0.00013127        0.15379898        0.00025278        0.00000040        0.00102403        0.00000000        0.00109888        0.00000456        0.00022140
      25          0.315914        0.000000        0.00456904        0.00001064        0.00004766        0.00002394        0.69850596        0.00043485        0.23664689        0.00006548        0.00000019        0.00000176        0.00010424        0.00003457        0.00000437        0.00000320        0.00000001        0.00001195
      26          0.330564        0.000000        0.00104889        0.00001088        0.00000321        0.00000593        0.00078963        0.12383581        0.01325701        0.20884070        0.52490418        0.00000807        0.00000450        0.00000414        0.00000009        0.00000136        0.00000173        0.00000031
      27          0.331169        0.000000        0.00554452        0.00000353        0.00000439        0.00000310        0.00387211        0.38901858        0.06938280        0.21569759        0.23069213        0.00000114        0.00000621        0.00000232        0.00000008        0.00000135        0.00000083        0.00000264
      28          0.333014        0.000000        0.02433442        0.00002575        0.00000392        0.00000450        0.01664610        0.16126899        0.29336388        0.37730005        0.04374984        0.00002416        0.00001758        0.00000702        0.00000052        0.00009273        0.00000017        0.00000302
      29          0.333627        0.000000        0.03254647        0.00000082        0.00001876        0.00001386        0.01819075        0.28522053        0.38586879        0.17790573        0.01291319        0.00000124        0.00002252        0.00005523        0.00000083        0.00000462        0.00000006        0.00001529
      30          0.393173        0.000000        0.00958241        0.00000761        0.00001057        0.00000095        0.77980403        0.00012086        0.05885323        0.00004694        0.00135397        0.00000894        0.00000681        0.00000107        0.00000035        0.00000807        0.00000001        0.00000088
      31          0.410103        0.000000        0.00000703        0.00000205        0.00000001        0.00000162        0.00122880        0.00010083        0.00011312        0.00002897        0.81238183        0.00000017        0.00000001        0.00000411        0.00000000        0.00000041        0.00000317        0.00000124
      32          0.493630        0.000000        0.00004471        0.00010408        0.00000122        0.00009883        0.00020619        0.31048614        0.00100110        0.30143635        0.00000052        0.00002847        0.00000045        0.00000913        0.00000028        0.00000904        0.00000140        0.00002517
      33          0.498477        0.000000        0.00008601        0.00000280        0.00001369        0.00000300        0.00078808        0.30495799        0.00366278        0.30292454        0.00000019        0.00000084        0.00000369        0.00000007        0.00000042        0.00000021        0.00000049        0.00000081
      34          0.516436        0.000000        0.05656423        0.00002441        0.00001141        0.00001903        0.16141695        0.00235810        0.32911693        0.00138363        0.00002384        0.00000764        0.00000469        0.00001327        0.00000067        0.00000291        0.00000001        0.00002330
      35          0.548911        0.000000        0.24229197        0.00001457        0.00002559        0.00000087        0.00897859        0.00126995        0.14817541        0.00049715        0.00001015        0.00000233        0.00000789        0.00002155        0.00000134        0.00001441        0.00000000        0.00000259
      36          0.711874        0.000000        0.00004158        0.21338394        0.00006258        0.06963883        0.00001837        0.00001376        0.00002528        0.00002376        0.00013745        0.08701376        0.00001176        0.04156405        0.00000117        0.03803943        0.00000043        0.02342198
      37          0.712842        0.000000        0.00000612        0.07096515        0.00000887        0.21249353        0.00001548        0.00014186        0.00001671        0.00013077        0.00002632        0.02280678        0.00001762        0.03930114        0.00000055        0.04165511        0.00000151        0.08687059
      38          0.789870        0.000000        0.00004983        0.00003892        0.00000000        0.00007622        0.00011896        0.00001391        0.00009886        0.00000560        0.41228018        0.00000502        0.00000002        0.00000444        0.00000000        0.00004233        0.00001661        0.00001591
      39          0.855955        0.000000        0.10175800        0.00000323        0.00012089        0.00000618        0.39397646        0.00001027        0.22913621        0.00009637        0.00007332        0.00000323        0.00001634        0.00000129        0.00000220        0.00000174        0.00000001        0.00000343
      40          0.923834        0.000000        0.24516218        0.00028802        0.00040365        0.00023730        0.01695375        0.00001233        0.31603631        0.00001849        0.00000857        0.00000570        0.00002825        0.00004407        0.00002095        0.00002507        0.00000002        0.00000943
      41          0.941498        0.000000        0.24710334        0.00014416        0.00027393        0.00017024        0.00646318        0.00008501        0.04616006        0.00003277        0.00000333        0.00001884        0.00002395        0.00010067        0.00001410        0.00002915        0.00000001        0.00001083
      42          0.985452        0.000000        0.00026238        0.06454178        0.00029157        0.24503156        0.00006304        0.00001057        0.00050187        0.00004891        0.00001774        0.00659422        0.00000997        0.03324517        0.00001309        0.04696670        0.00000483        0.01463414
      43          0.989789        0.000000        0.00017848        0.24315349        0.00037466        0.06259378        0.00002574        0.00006554        0.00007859        0.00002326        0.00002593        0.01391453        0.00001805        0.04704242        0.00001598        0.03112921        0.00001750        0.00667097
      44          1.094005        0.000000        0.00025004        0.00012649        0.47214574        0.00000541        0.00010885        0.00002920        0.00009046        0.00008709        0.00000001        0.00000020        0.06960478        0.00006973        0.01591887        0.00012588        0.00000606        0.00000191
      45          1.199024        0.000000        0.00008832        0.00000659        0.18028738        0.00002342        0.00008278        0.00002699        0.00012105        0.00013123        0.00000097        0.00005515        0.05734349        0.00001128        0.00576869        0.00009337        0.00001287        0.00001087
      46          1.246531        0.000000        0.00000394        0.00001773        0.00000027        0.00003388        0.00001064        0.00002747        0.00000515        0.00005298        0.73759813        0.00000420        0.00000017        0.00000056        0.00000001        0.00001192        0.00000173        0.00001119
      47          1.305134        0.000000        0.00001503        0.00000579        0.00005486        0.00001776        0.00003288        0.31281426        0.00003571        0.18787638        0.00000383        0.00000334        0.00000980        0.00000872        0.00001164        0.00001606        0.00000689        0.00001672
      48          1.309790        0.000000        0.00001479        0.00001162        0.00007374        0.00000072        0.00001754        0.17966935        0.00000311        0.31895710        0.00023264        0.00003035        0.00002241        0.00004224        0.00000809        0.00003645        0.00002146        0.00001560
      49          1.479234        0.000000        0.03339546        0.00034502        0.00006523        0.00912134        0.13900646        0.00023082        0.24039038        0.00001354        0.00000499        0.01241166        0.00013842        0.00542643        0.00000365        0.00072073        0.00000713        0.00713036
      50          1.483364        0.000000        0.00326690        0.02126490        0.00009313        0.04862587        0.01475531        0.00011225        0.02472768        0.00023890        0.00001173        0.07900648        0.00000441        0.02697753        0.00001903        0.01729758        0.00009958        0.06656364
      51          1.483844        0.000000        0.00544407        0.04650603        0.00003883        0.01667035        0.07835623        0.00014701        0.00552745        0.00009405        0.00000169        0.05456323        0.00009582        0.01219732        0.00000438        0.02592319        0.00006285        0.07677039
      52          1.493380        0.000000        0.02927385        0.00779052        0.00009827        0.00330202        0.36045286        0.00022824        0.01467627        0.00050569        0.00000133        0.01049650        0.00013637        0.00248161        0.00002821        0.00459535        0.00001338        0.01401866
      53          1.626373        0.000000        0.00000003        0.00002242        0.00041147        0.00003733        0.00000001        0.00006033        0.00000018        0.00000218        0.00008143        0.00002050        0.00010338        0.00000460        0.00009349        0.00000310        0.36564263        0.00026056
      54          1.651725        0.000000        0.00011154        0.00001567        0.28964337        0.00005882        0.00013003        0.00112169        0.00010959        0.00271645        0.00000013        0.00021129        0.03272259        0.00115399        0.07421901        0.00021494        0.00045677        0.00005283
      55          1.684974        0.000000        0.00006234        0.00016230        0.00240513        0.00017378        0.00022413        0.10770015        0.00002598        0.15664735        0.00000377        0.00002178        0.00016840        0.00023662        0.00064954        0.00053245        0.00024440        0.00001131
      56          1.692179        0.000000        0.00011368        0.00004486        0.00136632        0.00000434        0.00026330        0.15774376        0.00013053        0.10152284        0.00000383        0.00000664        0.00031751        0.00032066        0.00033735        0.00007934        0.00007379        0.00000483
      57          1.737975        0.000000        0.00000237        0.00002364        0.00000132        0.00000917        0.00005245        0.00009267        0.00001624        0.00026467        0.00267187        0.00004302        0.00000163        0.00053263        0.00000037        0.00072595        0.00078073        0.00003579
      58          1.782079        0.000000        0.00001168        0.00606446        0.00087675        0.00705757        0.00008685        0.00009034        0.00002320        0.00010123        0.00000159        0.02252179        0.00406458        0.13965865        0.00051614        0.15981284        0.00005963        0.03063799
      59          1.790748        0.000000        0.00005076        0.00553249        0.00044444        0.00588185        0.00002168        0.00037648        0.00002750        0.00031761        0.00000294        0.02358226        0.00427487        0.17478577        0.00032619        0.14591680        0.00044936        0.01763288
      60          1.803306        0.000000        0.00007680        0.00019936        0.01109196        0.00012157        0.00002910        0.00005824        0.00011011        0.00011555        0.00000017        0.00008996        0.20153375        0.00151676        0.00992402        0.01259125        0.00023359        0.00249613
      61          1.834813        0.000000        0.00000028        0.00034539        0.00000298        0.00001844        0.00000019        0.00006756        0.00000031        0.00012312        0.00004555        0.00035952        0.00006108        0.00000837        0.00001179        0.00004927        0.66481607        0.00023779
      62          1.866847        0.000000        0.00002554        0.10698463        0.00002635        0.02531250        0.00003731        0.00012825        0.00002039        0.00004893        0.00014059        0.20049979        0.00004566        0.10841293        0.00000210        0.03039773        0.00097603        0.09531503
      63          1.871683        0.000000        0.00003050        0.02510003        0.00002852        0.10310482        0.00008674        0.00002885        0.00002329        0.00010196        0.00002671        0.10116308        0.00002364        0.04084134        0.00000807        0.12750673        0.00015394        0.19241965
      64          1.937217        0.000000        0.03521719        0.00003669        0.00037315        0.00004487        0.07691263        0.00010482        0.01667405        0.00001939        0.00000087        0.00117179        0.00053288        0.00030142        0.00020958        0.00085245        0.00000011        0.00045150
      65          2.002554        0.000000        0.00002439        0.01356937        0.00215516        0.01503191        0.00004746        0.00036530        0.00002094        0.00043944        0.00005091        0.02422095        0.01511521        0.20464042        0.00056747        0.15100604        0.00002692        0.02803024
      66          2.017803        0.000000        0.00007320        0.00940720        0.03722454        0.00975158        0.00012977        0.00015506        0.00010388        0.00003222        0.00001752        0.01550317        0.25074270        0.12382220        0.01064371        0.10734981        0.00000318        0.01665690
      67          2.032671        0.000000        0.00004683        0.00669848        0.06101707        0.00501240        0.00000469        0.00037328        0.00011978        0.00002915        0.00000957        0.01450563        0.40418912        0.03763424        0.01880021        0.11164834        0.00001351        0.00599804
      68          2.098125        0.000000        0.00019962        0.00002977        0.00017295        0.00007032        0.00007768        0.00795324        0.00001801        0.17846070        0.00000601        0.00011014        0.00032196        0.00019881        0.00084584        0.00039974        0.00011932        0.00020546
      69          2.103861        0.000000        0.00002431        0.00006619        0.00059994        0.00003282        0.00026757        0.18059869        0.00001321        0.00619616        0.00001717        0.00023454        0.00191317        0.00043475        0.00035610        0.00035406        0.00043744        0.00011343
      70          2.139391        0.000000        0.00018638        0.00000944        0.00000059        0.00004149        0.00000190        0.00001520        0.00002249        0.00006546        0.05446514        0.00046333        0.00000213        0.00048309        0.00000039        0.00000554        0.00012966        0.00018413
      71          2.181284        0.000000        0.04041695        0.00015942        0.00004961        0.00021214        0.01649500        0.00004019        0.02073395        0.00018749        0.00010722        0.00017981        0.00013407        0.00002850        0.00106296        0.00007363        0.00000061        0.00070383
      72          2.261993        0.000000        0.00014031        0.00620318        0.03132531        0.00199986        0.00015654        0.00022978        0.00003974        0.00017234        0.00000205        0.01407503        0.00795930        0.00016965        0.92545216        0.00195326        0.00002218        0.00128961
      73          2.282491        0.000000        0.00032895        0.15396424        0.00106576        0.09886937        0.00005691        0.00008091        0.00002612        0.00001919        0.00004310        0.39839160        0.00043980        0.01934822        0.02442426        0.04508053        0.00000867        0.17128992
      74          2.283192        0.000000        0.00008272        0.08746310        0.00012073        0.16344231        0.00002182        0.00004909        0.00000675        0.00016294        0.00006637        0.16666623        0.00006681        0.04645312        0.00249588        0.01838831        0.00008871        0.42837658
