# Projected DOS for atomic kind O at iteration step i = 0, E(Fermi) =     0.270093 a.u.
#     MO Eigenvalue [a.u.]      Occupation                 s                py                pz                px               d-2               d-1                d0               d+1               d+2
       1         -1.905106        2.000000        0.04066711        0.03215115        0.00003931        0.03172787        0.01248899        0.00001033        0.00772464        0.00001021        0.00000113
       2         -1.902199        2.000000        0.03190100        0.04403348        0.00003458        0.04332282        0.00914377        0.00000634        0.01065984        0.00000609        0.00000224
       3         -0.981847        2.000000        0.01003054        0.01182585        0.00000062        0.01279216        0.00466035        0.00000193        0.00029441        0.00000191        0.00244170
       4         -0.979815        2.000000        0.01346599        0.01007382        0.00000075        0.00911431        0.00488739        0.00000310        0.00002942        0.00000390        0.00272628
       5         -0.972336        2.000000        0.00959022        0.01411645        0.00002768        0.01339391        0.00000766        0.00000451        0.00949873        0.00000404        0.00017359
       6         -0.969928        2.000000        0.01307463        0.01007896        0.00000547        0.01097041        0.00003856        0.00000166        0.00955458        0.00000145        0.00043280
       7         -0.966016        2.000000        0.00003794        0.00002659        0.03707528        0.00002070        0.00000766        0.00698656        0.00000541        0.00682603        0.00000012
       8         -0.963046        2.000000        0.00004115        0.00003239        0.02990253        0.00003382        0.00000393        0.01004346        0.00000181        0.00981655        0.00000037
       9         -0.393877        2.000000        0.51900826        0.00014139        0.00000334        0.00013369        0.00063724        0.00000055        0.00001197        0.00000042        0.00000152
      10         -0.351412        2.000000        0.55537006        0.00038437        0.00000845        0.00035067        0.00110918        0.00000013        0.00000105        0.00000009        0.00000868
      11         -0.326016        2.000000        0.64608103        0.00036806        0.00000783        0.00040771        0.00023566        0.00000030        0.00015565        0.00000050        0.00100371
      12         -0.323885        2.000000        0.64658418        0.00056031        0.00000878        0.00052443        0.00027147        0.00000042        0.00015042        0.00000046        0.00097584
      13          0.056499        2.000000        0.00674293        0.28720087        0.00009728        0.28370017        0.00008607        0.00000120        0.00717350        0.00000088        0.00000056
      14          0.069822        2.000000        0.00092068        0.27504325        0.00007723        0.27075928        0.00549461        0.00000390        0.00011792        0.00000477        0.00000505
      15          0.089015        2.000000        0.00000222        0.24853383        0.00000267        0.25271666        0.00000024        0.00000078        0.00000011        0.00000180        0.00157014
      16          0.123087        2.000000        0.00000862        0.00006236        0.60504284        0.00008898        0.00000439        0.00079121        0.00000123        0.00154852        0.00000345
      17          0.123554        2.000000        0.00000738        0.00020062        0.60448904        0.00016321        0.00000050        0.00163388        0.00000554        0.00076289        0.00000225
      18          0.177060        2.000000        0.01292084        0.06296436        0.00035301        0.74416562        0.00214057        0.00000056        0.00017038        0.00000354        0.00125298
      19          0.178808        2.000000        0.01242344        0.74645502        0.00023020        0.06330851        0.00251992        0.00000189        0.00016756        0.00000019        0.00116407
      20          0.199487        2.000000        0.00000567        0.00011359        0.91634040        0.00005693        0.00000749        0.00030871        0.00000687        0.00031805        0.00000008
      21          0.246534        2.000000        0.00001123        0.00033561        0.92200423        0.00005676        0.00002646        0.00002080        0.00005003        0.00002545        0.00000098
      22          0.258199        2.000000        0.00014582        0.54181046        0.00034236        0.39511037        0.00000588        0.00001587        0.00024573        0.00001101        0.00029018
      23          0.259277        2.000000        0.00041999        0.39856559        0.00012398        0.54577975        0.00002191        0.00000418        0.00025432        0.00000821        0.00000752
      24          0.270093        2.000000        0.00000542        0.41628267        0.00001926        0.42275577        0.00000665        0.00000616        0.00001560        0.00000191        0.00412990
      25          0.315914        0.000000        0.00098646        0.00672201        0.00151180        0.00573392        0.01712356        0.00000972        0.02744325        0.00000161        0.00000290
      26          0.330564        0.000000        0.00007339        0.05224030        0.00077950        0.05290884        0.00024565        0.00638906        0.00079341        0.00239733        0.01145608
      27          0.331169        0.000000        0.00042142        0.02827739        0.00137207        0.02871081        0.00130536        0.00340835        0.00396716        0.01314127        0.00516285
      28          0.333014        0.000000        0.00180951        0.02080397        0.00141098        0.02115651        0.00550272        0.01316794        0.01617126        0.00207713        0.00105734
      29          0.333627        0.000000        0.00243924        0.02120711        0.00149766        0.02042583        0.00722416        0.00383180        0.02075615        0.00952269        0.00031666
      30          0.393173        0.000000        0.08196285        0.02539413        0.00008622        0.02014903        0.01609936        0.00000261        0.00649386        0.00000298        0.00000225
      31          0.410103        0.000000        0.00008931        0.08997759        0.00000126        0.09597752        0.00001406        0.00000204        0.00000167        0.00000693        0.00005626
      32          0.493630        0.000000        0.00008091        0.00037406        0.36595928        0.00035512        0.00001430        0.00996235        0.00002759        0.00975645        0.00001684
      33          0.498477        0.000000        0.00010175        0.00123658        0.36419305        0.00122789        0.00000810        0.01051544        0.00000286        0.01026816        0.00000056
      34          0.516436        0.000000        0.09055762        0.17721335        0.00233774        0.17657871        0.00005007        0.00008304        0.00211421        0.00007428        0.00001992
      35          0.548911        0.000000        0.56015583        0.01314121        0.00064560        0.01348219        0.01108096        0.00003104        0.00012084        0.00002551        0.00000247
      36          0.711874        0.000000        0.31927432        0.06012429        0.00005965        0.01854452        0.00001683        0.00000225        0.05048272        0.00000069        0.07809658
      37          0.712842        0.000000        0.31991288        0.01457390        0.00004048        0.06162017        0.00003637        0.00000425        0.05236099        0.00000383        0.07698903
      38          0.789870        0.000000        0.00022076        0.28853550        0.00000062        0.28504200        0.00000440        0.00000680        0.00012252        0.00001034        0.01329026
      39          0.855955        0.000000        0.02207636        0.00761494        0.00009056        0.01018969        0.00776074        0.00000577        0.22704389        0.00000463        0.00000424
      40          0.923834        0.000000        0.04459437        0.09074566        0.00003876        0.08574123        0.19786601        0.00020762        0.00134821        0.00019959        0.00000449
      41          0.941498        0.000000        0.04836770        0.32037419        0.00003613        0.31632268        0.01233578        0.00007578        0.00176868        0.00007891        0.00000656
      42          0.985452        0.000000        0.00443793        0.39572063        0.00005704        0.10483922        0.03263941        0.00007630        0.04840727        0.00009158        0.00149305
      43          0.989789        0.000000        0.00364702        0.11036141        0.00001527        0.40063150        0.02980850        0.00009245        0.04817154        0.00017186        0.00177232
      44          1.094005        0.000000        0.00009585        0.00043345        0.01013707        0.00107380        0.00018047        0.21644237        0.00003142        0.21303452        0.00000033
      45          1.199024        0.000000        0.00013279        0.00011431        0.75438893        0.00004374        0.00001417        0.00045913        0.00026544        0.00044460        0.00007246
      46          1.246531        0.000000        0.00000118        0.00708229        0.00003034        0.00643036        0.00000532        0.00022536        0.00006067        0.00010179        0.24828272
      47          1.305134        0.000000        0.00003768        0.00001336        0.18100291        0.00007313        0.00000669        0.02161642        0.00006484        0.29618883        0.00006647
      48          1.309790        0.000000        0.00001709        0.00000857        0.18110040        0.00001149        0.00000953        0.29625515        0.00015536        0.02318890        0.00009629
      49          1.479234        0.000000        0.27291240        0.06241136        0.00079315        0.04780537        0.09666070        0.00000933        0.05515856        0.00025239        0.01558512
      50          1.483364        0.000000        0.03196432        0.19185052        0.00023693        0.14402494        0.01039193        0.00020274        0.19594502        0.00021510        0.12210354
      51          1.483844        0.000000        0.00815560        0.12443079        0.00007428        0.17834683        0.00204189        0.00021192        0.25692656        0.00005884        0.10735042
      52          1.493380        0.000000        0.00814643        0.02840763        0.00072483        0.04014570        0.00306889        0.00039922        0.45136666        0.00024095        0.01940054
      53          1.626373        0.000000        0.00000375        0.00017982        0.00089568        0.00022065        0.00002485        0.31442402        0.00022224        0.31712931        0.00015603
      54          1.651725        0.000000        0.00012541        0.00019755        0.07953430        0.00046111        0.00022924        0.26364948        0.00033792        0.25196327        0.00056303
      55          1.684974        0.000000        0.00019853        0.00054818        0.59959685        0.00055521        0.00069262        0.09728614        0.00024644        0.03148655        0.00012004
      56          1.692179        0.000000        0.00025090        0.00029321        0.60663080        0.00011022        0.00023072        0.03129403        0.00029764        0.09838183        0.00017708
      57          1.737975        0.000000        0.00011894        0.47616828        0.00036092        0.49058307        0.00001715        0.00053332        0.00010657        0.00062986        0.02622737
      58          1.782079        0.000000        0.03277803        0.24582179        0.01892235        0.18948353        0.04353141        0.00092515        0.00287520        0.00027210        0.09380516
      59          1.790748        0.000000        0.03179898        0.17633287        0.01731072        0.25890775        0.03392609        0.00125906        0.00424861        0.00045315        0.09613891
      60          1.803306        0.000000        0.00068902        0.02377781        0.72639540        0.00049859        0.00193149        0.00175366        0.00012942        0.00151199        0.00312429
      61          1.834813        0.000000        0.00014596        0.00109266        0.00037988        0.00107728        0.00056815        0.15984343        0.00000639        0.17031343        0.00042512
      62          1.866847        0.000000        0.01217091        0.01432768        0.00091409        0.00487780        0.31941433        0.00014898        0.06384749        0.00033425        0.01559071
      63          1.871683        0.000000        0.01198050        0.00451996        0.00021926        0.01027735        0.29334227        0.00017164        0.06775773        0.00005400        0.02102943
      64          1.937217        0.000000        0.00447240        0.37213078        0.00045753        0.36276080        0.12029144        0.00011367        0.00570197        0.00107704        0.00009096
      65          2.002554        0.000000        0.05978498        0.16572845        0.00376184        0.14549184        0.08491454        0.00114892        0.03114750        0.00054291        0.05216689
      66          2.017803        0.000000        0.03691801        0.10280608        0.05455107        0.09664842        0.06186119        0.00955938        0.01741185        0.00886658        0.02976079
      67          2.032671        0.000000        0.02152034        0.05213396        0.09093774        0.07206499        0.04008549        0.01390997        0.00938033        0.01614756        0.01771926
      68          2.098125        0.000000        0.00032833        0.00021141        0.04919281        0.00019468        0.00135763        0.75260955        0.00017680        0.00649270        0.00024653
      69          2.103861        0.000000        0.00009325        0.00028308        0.05040203        0.00121023        0.00022181        0.00741125        0.00016723        0.74832635        0.00022524
      70          2.139391        0.000000        0.00039648        0.14525375        0.00001287        0.15839911        0.00198059        0.00039980        0.00024914        0.00031185        0.63692005
      71          2.181284        0.000000        0.12109946        0.02865399        0.00023476        0.01822460        0.74195660        0.00132925        0.00610807        0.00008410        0.00172380
      72          2.261993        0.000000        0.00073608        0.00075471        0.00257675        0.00082184        0.00122667        0.00094080        0.00102138        0.00060390        0.00012758
      73          2.282491        0.000000        0.01830730        0.01896315        0.00035180        0.02092898        0.01592994        0.00008963        0.00874268        0.00005706        0.00319193
      74          2.283192        0.000000        0.01614715        0.02106950        0.00007192        0.02098163        0.01482540        0.00004988        0.01131446        0.00013525        0.00145336
