# Projected DOS for atomic kind Ti at iteration step i = 0, E(Fermi) =     0.273714 a.u.
#     MO Eigenvalue [a.u.]      Occupation                 s                py                pz                px               d-2               d-1                d0               d+1               d+2               f-3               f-2               f-1                f0               f+1               f+2               f+3
       1         -1.906763        2.000000        0.84976458        0.00000003        0.00000074        0.00000006        0.00062670        0.00000003        0.03191165        0.00000002        0.00000000        0.00000021        0.00000000        0.00000000        0.00000002        0.00000000        0.00000000        0.00000063
       2         -1.905429        2.000000        0.80686390        0.00000006        0.00000009        0.00000009        0.00130926        0.00000007        0.04678365        0.00000005        0.00000002        0.00000024        0.00000000        0.00000002        0.00000001        0.00000002        0.00000000        0.00000056
       3         -0.983549        2.000000        0.00000012        0.44362306        0.00000103        0.47451904        0.00000010        0.00000004        0.00000006        0.00000004        0.00000001        0.01176706        0.00000000        0.00653246        0.00000000        0.00722633        0.00000000        0.01301037
       4         -0.982688        2.000000        0.00000003        0.46555480        0.00000069        0.45164035        0.00000002        0.00000001        0.00000001        0.00000001        0.00000014        0.01340573        0.00000000        0.00749986        0.00000000        0.00702944        0.00000000        0.01254900
       5         -0.974055        2.000000        0.00000001        0.45647351        0.00005049        0.46797699        0.00000001        0.00000004        0.00000001        0.00000004        0.00000033        0.00996131        0.00000000        0.00521554        0.00000027        0.00504553        0.00000000        0.00978222
       6         -0.972858        2.000000        0.00000024        0.47610766        0.00012153        0.44767178        0.00000021        0.00000001        0.00000006        0.00000001        0.00000003        0.01059904        0.00000001        0.00552402        0.00000060        0.00545379        0.00000000        0.01034305
       7         -0.967477        2.000000        0.00000008        0.00001371        0.94232026        0.00004700        0.00000004        0.00000000        0.00000009        0.00000002        0.00000000        0.00000076        0.00004456        0.00000044        0.00751499        0.00000034        0.00000000        0.00000085
       8         -0.965925        2.000000        0.00000006        0.00004763        0.95313780        0.00004581        0.00000001        0.00000000        0.00000005        0.00000002        0.00000000        0.00000109        0.00005952        0.00000053        0.00164312        0.00000095        0.00000000        0.00000170
       9         -0.392325        2.000000        0.47477286        0.00001928        0.00000086        0.00002142        0.00011864        0.00000195        0.00480460        0.00000059        0.00000006        0.00000540        0.00000051        0.00000212        0.00000003        0.00000200        0.00000000        0.00000551
      10         -0.349040        2.000000        0.02743449        0.00015030        0.00000126        0.00016981        0.23036680        0.00000084        0.18135714        0.00000264        0.00000421        0.00003617        0.00000038        0.00002299        0.00000004        0.00002307        0.00000000        0.00004593
      11         -0.325236        2.000000        0.00000068        0.13301466        0.00000080        0.10999138        0.00000021        0.00000340        0.00000032        0.00000341        0.00000570        0.03799035        0.00000030        0.02263380        0.00000002        0.01893487        0.00000000        0.03192072
      12         -0.324402        2.000000        0.00010383        0.11000653        0.00000166        0.13226624        0.00033300        0.00000008        0.00019891        0.00000007        0.00000100        0.03207787        0.00000088        0.01868699        0.00000005        0.02246521        0.00000000        0.03783245
      13          0.057585        2.000000        0.14636127        0.00000236        0.00000028        0.00000301        0.13478901        0.00000297        0.13799147        0.00000021        0.00000258        0.00000068        0.00000019        0.00000204        0.00000002        0.00000267        0.00000000        0.00000188
      14          0.070951        2.000000        0.00807601        0.00000239        0.00000033        0.00000111        0.09605306        0.00000512        0.34854277        0.00000826        0.00000267        0.00000016        0.00000014        0.00000255        0.00000007        0.00000180        0.00000000        0.00000025
      15          0.088606        2.000000        0.00000011        0.00000547        0.00000000        0.00000379        0.00000660        0.00000053        0.00000089        0.00000066        0.49889986        0.00000096        0.00000000        0.00000050        0.00000000        0.00000075        0.00000016        0.00000059
      16          0.126833        2.000000        0.00000121        0.00000336        0.00000079        0.00000321        0.00000113        0.23114896        0.00001198        0.16207801        0.00000015        0.00000125        0.00000030        0.00000123        0.00000005        0.00000126        0.00000012        0.00000122
      17          0.127127        2.000000        0.00000339        0.00000009        0.00002150        0.00000026        0.00000176        0.16310941        0.00002385        0.23015091        0.00000009        0.00000005        0.00000743        0.00000010        0.00000060        0.00000005        0.00000001        0.00000009
      18          0.178530        2.000000        0.00000225        0.08314167        0.00000043        0.02584336        0.00000529        0.00000628        0.00000211        0.00000435        0.00002037        0.03186750        0.00000001        0.00750173        0.00000004        0.02156848        0.00000022        0.00649271
      19          0.179045        2.000000        0.00000789        0.02528904        0.00000031        0.08328905        0.00002337        0.00000189        0.00000424        0.00000377        0.00000814        0.00628752        0.00000010        0.02147509        0.00000001        0.00748265        0.00000008        0.03177151
      20          0.199867        2.000000        0.00000984        0.00000063        0.07041474        0.00000259        0.00001780        0.00005388        0.00001606        0.00002747        0.00000000        0.00000044        0.00659838        0.00000045        0.00260719        0.00000036        0.00000014        0.00000078
      21          0.247991        2.000000        0.00001127        0.00000158        0.01735421        0.00000026        0.00009489        0.00002949        0.00006422        0.00003574        0.00000000        0.00000071        0.05478964        0.00000006        0.00175957        0.00000077        0.00000041        0.00000005
      22          0.259802        2.000000        0.00000225        0.00152053        0.00000002        0.00081115        0.00000318        0.00003758        0.00001028        0.00005846        0.00076335        0.00535561        0.00000136        0.01155064        0.00000000        0.02582453        0.00000050        0.00495514
      23          0.259975        2.000000        0.00000385        0.00084157        0.00000010        0.00153679        0.00005009        0.00003052        0.00003217        0.00001220        0.00004460        0.00509101        0.00000119        0.02624006        0.00000002        0.01176932        0.00000013        0.00523862
      24          0.273714        2.000000        0.00000128        0.00000421        0.00000000        0.00000324        0.00000545        0.00000841        0.00000359        0.00002945        0.14882652        0.00001628        0.00000000        0.00006727        0.00000000        0.00007576        0.00000046        0.00001539
      25          0.312636        0.000000        0.00453918        0.00000122        0.00000417        0.00000239        0.68169716        0.00004872        0.25634063        0.00001031        0.00000052        0.00000023        0.00000954        0.00000316        0.00000038        0.00000031        0.00000000        0.00000124
      26          0.326513        0.000000        0.00005621        0.00000092        0.00000001        0.00000028        0.00003958        0.00060002        0.00073456        0.00196402        0.82404939        0.00000096        0.00000000        0.00000032        0.00000000        0.00000116        0.00000021        0.00000011
      27          0.327042        0.000000        0.05863414        0.00000144        0.00000219        0.00000045        0.03690923        0.00426460        0.76261328        0.00202302        0.00084371        0.00000092        0.00000289        0.00000099        0.00000010        0.00000334        0.00000000        0.00000034
      28          0.329955        0.000000        0.00033744        0.00000045        0.00000057        0.00000048        0.00021086        0.48653656        0.00408296        0.47813390        0.00068031        0.00000031        0.00000328        0.00000084        0.00000005        0.00000095        0.00000000        0.00000032
      29          0.330701        0.000000        0.00007956        0.00000151        0.00000041        0.00000160        0.00003601        0.47601992        0.00093729        0.49142084        0.00121802        0.00000135        0.00000007        0.00000411        0.00000002        0.00000393        0.00000001        0.00000140
      30          0.393672        0.000000        0.01151342        0.00000083        0.00000094        0.00000008        0.78070522        0.00001220        0.05838657        0.00000580        0.00015478        0.00000094        0.00000070        0.00000009        0.00000004        0.00000076        0.00000000        0.00000009
      31          0.409053        0.000000        0.00000103        0.00000019        0.00000000        0.00000019        0.00014078        0.00000938        0.00001360        0.00000238        0.81528119        0.00000002        0.00000000        0.00000040        0.00000000        0.00000003        0.00000028        0.00000012
      32          0.488483        0.000000        0.00000596        0.00000928        0.00000009        0.00000915        0.00001723        0.30402292        0.00007479        0.30929148        0.00000008        0.00000252        0.00000004        0.00000078        0.00000002        0.00000077        0.00000012        0.00000243
      33          0.490292        0.000000        0.00001483        0.00000021        0.00000120        0.00000020        0.00004630        0.31099922        0.00021422        0.30183546        0.00000003        0.00000006        0.00000032        0.00000001        0.00000004        0.00000001        0.00000005        0.00000005
      34          0.519700        0.000000        0.03054523        0.00000204        0.00000122        0.00000182        0.18304121        0.00014591        0.36236519        0.00008590        0.00000276        0.00000082        0.00000048        0.00000094        0.00000010        0.00000021        0.00000000        0.00000247
      35          0.547332        0.000000        0.26650439        0.00000223        0.00000232        0.00000002        0.00213372        0.00009579        0.09453526        0.00003286        0.00000062        0.00000042        0.00000077        0.00000268        0.00000010        0.00000164        0.00000000        0.00000007
      36          0.710564        0.000000        0.00000235        0.17950699        0.00000316        0.10399586        0.00000111        0.00001251        0.00000109        0.00001274        0.00000083        0.07300242        0.00000054        0.04037959        0.00000006        0.03910154        0.00000011        0.03900057
      37          0.711120        0.000000        0.00000292        0.10414923        0.00000442        0.17898387        0.00000222        0.00000085        0.00000296        0.00000058        0.00001346        0.03930336        0.00000263        0.03862777        0.00000012        0.03953891        0.00000006        0.07344388
      38          0.795134        0.000000        0.00000711        0.00000375        0.00000000        0.00000676        0.00001821        0.00000144        0.00001497        0.00000055        0.40627229        0.00000043        0.00000000        0.00000047        0.00000000        0.00000382        0.00000144        0.00000133
      39          0.854312        0.000000        0.09643246        0.00000024        0.00001012        0.00000054        0.39203241        0.00000099        0.23394801        0.00000971        0.00001284        0.00000037        0.00000144        0.00000009        0.00000017        0.00000015        0.00000000        0.00000039
      40          0.911852        0.000000        0.24862658        0.00001662        0.00002331        0.00001857        0.01677764        0.00000143        0.34196047        0.00000202        0.00000121        0.00000017        0.00000135        0.00000158        0.00000128        0.00000099        0.00000000        0.00000077
      41          0.935905        0.000000        0.24938381        0.00001787        0.00004168        0.00000576        0.00240905        0.00000843        0.03472544        0.00000289        0.00000015        0.00000176        0.00000325        0.00000950        0.00000204        0.00000279        0.00000000        0.00000046
      42          0.991699        0.000000        0.00001611        0.06154157        0.00003457        0.24409372        0.00000474        0.00000093        0.00003405        0.00000458        0.00000179        0.00713912        0.00000125        0.03384463        0.00000159        0.04466291        0.00000047        0.01392748
      43          0.992958        0.000000        0.00001335        0.24344430        0.00004322        0.06090822        0.00000288        0.00000560        0.00000771        0.00000184        0.00000263        0.01375335        0.00000187        0.04460746        0.00000188        0.03308966        0.00000172        0.00723319
      44          1.087983        0.000000        0.00002323        0.00001677        0.48185430        0.00000089        0.00000850        0.00000268        0.00000671        0.00000793        0.00000000        0.00000002        0.06262926        0.00000785        0.01654478        0.00001488        0.00000053        0.00000035
      45          1.199285        0.000000        0.00000757        0.00000062        0.19014565        0.00000275        0.00000776        0.00000277        0.00000910        0.00001294        0.00000001        0.00000572        0.05276122        0.00000110        0.00653334        0.00000948        0.00000121        0.00000107
      46          1.244811        0.000000        0.00000048        0.00000179        0.00000000        0.00000346        0.00000125        0.00000240        0.00000038        0.00000450        0.72989373        0.00000048        0.00000000        0.00000003        0.00000000        0.00000103        0.00000023        0.00000111
      47          1.311280        0.000000        0.00000178        0.00000059        0.00000550        0.00000163        0.00000383        0.31932140        0.00000401        0.18119059        0.00000045        0.00000020        0.00000123        0.00000069        0.00000112        0.00000142        0.00000053        0.00000181
      48          1.312755        0.000000        0.00000168        0.00000108        0.00000723        0.00000008        0.00000199        0.17848733        0.00000038        0.32130893        0.00002043        0.00000288        0.00000201        0.00000393        0.00000076        0.00000323        0.00000257        0.00000122
      49          1.484764        0.000000        0.00075898        0.01821556        0.00000267        0.05525746        0.00336569        0.00002022        0.00508336        0.00002120        0.00000193        0.09218678        0.00000445        0.03484300        0.00000091        0.01504305        0.00001022        0.06751022
      50          1.485311        0.000000        0.00532856        0.04772285        0.00000200        0.01644202        0.06297178        0.00001178        0.00227077        0.00000928        0.00000016        0.05806849        0.00000649        0.01303829        0.00000029        0.03013840        0.00000708        0.08120561
      51          1.487507        0.000000        0.03525519        0.00423358        0.00000430        0.00012517        0.24810150        0.00000981        0.16452443        0.00001366        0.00000014        0.00329573        0.00001889        0.00032346        0.00000016        0.00296199        0.00000090        0.00659500
      52          1.489139        0.000000        0.03398890        0.00444814        0.00001623        0.00335250        0.27512124        0.00003190        0.11662670        0.00004101        0.00000025        0.00813754        0.00000152        0.00231651        0.00000328        0.00279399        0.00000069        0.00887288
      53          1.627308        0.000000        0.00000000        0.00000220        0.00004449        0.00000421        0.00000000        0.00000523        0.00000000        0.00000016        0.00000816        0.00000206        0.00001204        0.00000030        0.00000989        0.00000030        0.36496791        0.00002836
      54          1.653383        0.000000        0.00000973        0.00000150        0.28967289        0.00000450        0.00000583        0.00028389        0.00001002        0.00056841        0.00000000        0.00001916        0.04613333        0.00010658        0.07329633        0.00001921        0.00005208        0.00000416
      55          1.675955        0.000000        0.00000777        0.00001449        0.00052537        0.00001657        0.00002455        0.11590925        0.00000323        0.15621716        0.00000039        0.00000071        0.00005983        0.00002912        0.00013898        0.00004690        0.00002015        0.00000088
      56          1.678519        0.000000        0.00001309        0.00000331        0.00032998        0.00000028        0.00003210        0.15648768        0.00001751        0.11386714        0.00000038        0.00000090        0.00004020        0.00001758        0.00008257        0.00000268        0.00000502        0.00000047
      57          1.739608        0.000000        0.00000045        0.00000249        0.00000001        0.00000131        0.00000672        0.00000936        0.00000155        0.00002059        0.00187031        0.00000452        0.00000002        0.00004356        0.00000000        0.00005266        0.00007230        0.00000325
      58          1.800109        0.000000        0.00000458        0.00079725        0.00912938        0.00107879        0.00000320        0.00000840        0.00000415        0.00001039        0.00000004        0.00124113        0.19670101        0.01314211        0.00814156        0.02199136        0.00000920        0.00481854
      59          1.803230        0.000000        0.00000296        0.00629805        0.00102700        0.00629222        0.00000691        0.00000250        0.00000737        0.00000253        0.00000013        0.02453367        0.02356011        0.13870047        0.00090432        0.13109244        0.00000681        0.02225667
      60          1.805851        0.000000        0.00000543        0.00650167        0.00014161        0.00674822        0.00000398        0.00003002        0.00000491        0.00003038        0.00000055        0.02293486        0.00295978        0.15340888        0.00011329        0.15184683        0.00004848        0.02363579
      61          1.845901        0.000000        0.00000001        0.00016384        0.00000048        0.00000883        0.00000001        0.00000481        0.00000001        0.00001029        0.00000493        0.00019274        0.00000282        0.00004632        0.00000068        0.00000526        0.67983277        0.00008210
      62          1.861406        0.000000        0.00000287        0.11589835        0.00000432        0.02699585        0.00000471        0.00001172        0.00000209        0.00000427        0.00001260        0.18335361        0.00000849        0.11718615        0.00000039        0.02733242        0.00060276        0.08707413
      63          1.863175        0.000000        0.00000270        0.02666206        0.00000393        0.11450172        0.00000977        0.00000184        0.00000221        0.00000931        0.00000257        0.08928691        0.00000569        0.03091333        0.00000041        0.12509554        0.00003816        0.18072961
      64          1.941987        0.000000        0.03671316        0.00000271        0.00004686        0.00000871        0.08257330        0.00001150        0.01674775        0.00000200        0.00000009        0.00017511        0.00005834        0.00003914        0.00002091        0.00025379        0.00000001        0.00007628
      65          1.983942        0.000000        0.00000499        0.01015904        0.00019980        0.01127997        0.00001138        0.00004656        0.00000248        0.00004548        0.00000599        0.03156426        0.00115981        0.23851633        0.00004999        0.14451753        0.00000471        0.03813034
      66          1.989947        0.000000        0.00002633        0.01152846        0.00155161        0.01044999        0.00004622        0.00000003        0.00002054        0.00000205        0.00000143        0.03698568        0.00875545        0.14522354        0.00040167        0.23478587        0.00000268        0.02982854
      67          2.010259        0.000000        0.00000261        0.00021296        0.11664738        0.00014200        0.00000205        0.00002029        0.00001110        0.00000634        0.00000003        0.00066699        0.63822543        0.00058837        0.03311350        0.00541060        0.00000005        0.00024617
      68          2.105443        0.000000        0.00001312        0.00000301        0.00001123        0.00000448        0.00000620        0.00586764        0.00000181        0.17492469        0.00000244        0.00000930        0.00001255        0.00002013        0.00008301        0.00004561        0.00001295        0.00001565
      69          2.107150        0.000000        0.00000198        0.00000468        0.00003805        0.00000349        0.00002793        0.17560835        0.00000154        0.00540494        0.00000144        0.00001689        0.00008206        0.00004983        0.00003423        0.00002601        0.00004416        0.00001015
      70          2.139807        0.000000        0.00000937        0.00000248        0.00000000        0.00000486        0.00000051        0.00000049        0.00000100        0.00001310        0.05367856        0.00005626        0.00000001        0.00003338        0.00000000        0.00000133        0.00001420        0.00002233
      71          2.202025        0.000000        0.02955096        0.00003770        0.00001292        0.00005667        0.01790133        0.00000227        0.01988354        0.00000949        0.00000414        0.00004218        0.00000949        0.00001249        0.00027132        0.00001312        0.00000001        0.00016381
      72          2.260167        0.000000        0.00002170        0.00063362        0.04108803        0.00022058        0.00001918        0.00001878        0.00000476        0.00001710        0.00000002        0.00144853        0.00347379        0.00001492        0.94841297        0.00023422        0.00000156        0.00013232
      73          2.278520        0.000000        0.00002234        0.17987528        0.00015448        0.07858105        0.00000635        0.00000736        0.00000158        0.00000003        0.00000525        0.48670249        0.00002719        0.01313150        0.00281212        0.06588433        0.00000002        0.06446268
      74          2.279271        0.000000        0.00002104        0.07494270        0.00000096        0.18207770        0.00000632        0.00000318        0.00000265        0.00001212        0.00000658        0.06290710        0.00000468        0.06640442        0.00000896        0.01316065        0.00000513        0.49494446
