# Projected DOS for atomic kind Ti at iteration step i = 0, E(Fermi) =     0.272096 a.u.
#     MO Eigenvalue [a.u.]      Occupation                 s                py                pz                px               d-2               d-1                d0               d+1               d+2               f-3               f-2               f-1                f0               f+1               f+2               f+3
       1         -1.906118        2.000000        0.84173060        0.00000013        0.00000290        0.00000021        0.00077106        0.00000012        0.03484492        0.00000008        0.00000003        0.00000092        0.00000002        0.00000002        0.00000008        0.00000001        0.00000000        0.00000264
       2         -1.903963        2.000000        0.81426838        0.00000024        0.00000032        0.00000039        0.00120874        0.00000029        0.04398283        0.00000023        0.00000009        0.00000101        0.00000001        0.00000007        0.00000005        0.00000010        0.00000000        0.00000239
       3         -0.982864        2.000000        0.00000045        0.44232970        0.00000247        0.47691093        0.00000039        0.00000015        0.00000023        0.00000015        0.00000005        0.01157981        0.00000001        0.00639887        0.00000001        0.00711103        0.00000000        0.01285327
       4         -0.981387        2.000000        0.00000010        0.46182745        0.00000297        0.45563325        0.00000009        0.00000004        0.00000003        0.00000004        0.00000060        0.01350868        0.00000000        0.00756055        0.00000000        0.00721695        0.00000001        0.01286656
       5         -0.973367        2.000000        0.00000003        0.45731366        0.00020387        0.46696467        0.00000005        0.00000013        0.00000003        0.00000013        0.00000137        0.00983211        0.00000002        0.00510833        0.00000107        0.00487928        0.00000000        0.00955497
       6         -0.971522        2.000000        0.00000104        0.48044742        0.00043144        0.44249624        0.00000089        0.00000003        0.00000032        0.00000002        0.00000011        0.01091653        0.00000005        0.00566830        0.00000205        0.00549265        0.00000000        0.01045700
       7         -0.966897        2.000000        0.00000041        0.00005707        0.94308477        0.00015187        0.00000019        0.00000003        0.00000031        0.00000007        0.00000000        0.00000263        0.00004757        0.00000147        0.00657044        0.00000130        0.00000000        0.00000305
       8         -0.964626        2.000000        0.00000017        0.00017400        0.94957933        0.00018059        0.00000001        0.00000002        0.00000020        0.00000007        0.00000000        0.00000446        0.00005770        0.00000218        0.00255846        0.00000340        0.00000001        0.00000635
       9         -0.392973        2.000000        0.47408572        0.00007910        0.00000403        0.00008275        0.00009573        0.00000839        0.00545921        0.00000263        0.00000021        0.00002238        0.00000244        0.00000817        0.00000014        0.00000735        0.00000000        0.00002155
      10         -0.350021        2.000000        0.02894007        0.00054604        0.00000646        0.00065352        0.22558199        0.00000384        0.18471327        0.00001129        0.00001765        0.00013208        0.00000163        0.00007981        0.00000017        0.00008457        0.00000000        0.00017702
      11         -0.325616        2.000000        0.00000463        0.13642040        0.00000352        0.10611291        0.00000099        0.00001578        0.00000134        0.00001582        0.00002449        0.03907922        0.00000123        0.02267171        0.00000008        0.01797778        0.00000001        0.03102969
      12         -0.324195        2.000000        0.00041116        0.10594187        0.00000687        0.13454747        0.00124488        0.00000038        0.00075512        0.00000033        0.00000455        0.03130003        0.00000380        0.01744144        0.00000021        0.02229463        0.00000000        0.03864093
      13          0.057133        2.000000        0.14346645        0.00000954        0.00000119        0.00001281        0.13712146        0.00001195        0.13674889        0.00000082        0.00001022        0.00000268        0.00000081        0.00000828        0.00000010        0.00001151        0.00000000        0.00000754
      14          0.070509        2.000000        0.00895197        0.00001022        0.00000172        0.00000470        0.09189619        0.00002229        0.34954232        0.00003516        0.00000933        0.00000071        0.00000060        0.00001104        0.00000028        0.00000743        0.00000000        0.00000094
      15          0.088779        2.000000        0.00000033        0.00002290        0.00000000        0.00001588        0.00002746        0.00000225        0.00000283        0.00000313        0.49808105        0.00000413        0.00000000        0.00000194        0.00000000        0.00000303        0.00000074        0.00000260
      16          0.125346        2.000000        0.00000725        0.00001036        0.00004689        0.00000785        0.00000976        0.30168396        0.00008857        0.09096512        0.00000019        0.00000367        0.00001583        0.00000311        0.00000150        0.00000406        0.00000038        0.00000320
      17          0.125548        2.000000        0.00001217        0.00000722        0.00004504        0.00000999        0.00000270        0.09327929        0.00006069        0.29958722        0.00000115        0.00000290        0.00001598        0.00000398        0.00000120        0.00000283        0.00000019        0.00000357
      18          0.177869        2.000000        0.00001047        0.08314663        0.00000183        0.02580868        0.00002326        0.00002643        0.00000892        0.00002000        0.00008261        0.03179346        0.00000004        0.00700698        0.00000014        0.02183575        0.00000100        0.00654235
      19          0.178972        2.000000        0.00003103        0.02462765        0.00000115        0.08348017        0.00009591        0.00001041        0.00001616        0.00001642        0.00003519        0.00612772        0.00000040        0.02167717        0.00000003        0.00701742        0.00000035        0.03163494
      20          0.199688        2.000000        0.00004212        0.00000259        0.07090994        0.00001056        0.00007635        0.00021522        0.00006645        0.00010329        0.00000001        0.00000192        0.00691994        0.00000182        0.00265512        0.00000139        0.00000065        0.00000315
      21          0.247364        2.000000        0.00004506        0.00000712        0.01817220        0.00000114        0.00040545        0.00012121        0.00025853        0.00014892        0.00000004        0.00000312        0.05443948        0.00000019        0.00183563        0.00000362        0.00000179        0.00000017
      22          0.259165        2.000000        0.00000655        0.00139129        0.00000007        0.00095092        0.00002122        0.00019590        0.00002552        0.00026448        0.00394858        0.00527348        0.00000557        0.01472436        0.00000002        0.02275174        0.00000228        0.00489002
      23          0.259654        2.000000        0.00001986        0.00100088        0.00000048        0.00142510        0.00021104        0.00011449        0.00015210        0.00007023        0.00005871        0.00513574        0.00000549        0.02387795        0.00000008        0.01540065        0.00000060        0.00501527
      24          0.272096        2.000000        0.00000564        0.00002140        0.00000000        0.00001523        0.00002441        0.00002482        0.00001449        0.00009140        0.15279971        0.00008404        0.00000005        0.00034325        0.00000000        0.00037427        0.00000197        0.00007611
      25          0.314033        0.000000        0.00458992        0.00000479        0.00001892        0.00001017        0.68862964        0.00019791        0.24820567        0.00003572        0.00000063        0.00000083        0.00004272        0.00001402        0.00000172        0.00000128        0.00000000        0.00000520
      26          0.328340        0.000000        0.00006211        0.00000334        0.00000010        0.00000110        0.00006129        0.00524276        0.00079775        0.01694012        0.80192996        0.00000348        0.00000005        0.00000109        0.00000000        0.00000325        0.00000101        0.00000022
      27          0.329415        0.000000        0.05064570        0.00000779        0.00000759        0.00000293        0.03230249        0.09826277        0.63939455        0.05789225        0.00306962        0.00000409        0.00000342        0.00000144        0.00000020        0.00001054        0.00000001        0.00000106
      28          0.330647        0.000000        0.00937420        0.00000119        0.00000313        0.00000078        0.00584545        0.39472352        0.11505367        0.42108898        0.00676863        0.00000210        0.00001984        0.00000605        0.00000039        0.00001208        0.00000001        0.00000161
      29          0.331862        0.000000        0.00084928        0.00000575        0.00000230        0.00000708        0.00035117        0.46544934        0.01005521        0.48073124        0.00835195        0.00000548        0.00000066        0.00001950        0.00000008        0.00001565        0.00000003        0.00000641
      30          0.393480        0.000000        0.01064531        0.00000344        0.00000415        0.00000037        0.78035099        0.00005211        0.05870079        0.00002278        0.00063476        0.00000389        0.00000290        0.00000040        0.00000014        0.00000332        0.00000000        0.00000039
      31          0.409492        0.000000        0.00000386        0.00000083        0.00000000        0.00000072        0.00057751        0.00004178        0.00005346        0.00001114        0.81411436        0.00000007        0.00000000        0.00000175        0.00000000        0.00000015        0.00000127        0.00000053
      32          0.490539        0.000000        0.00002333        0.00004147        0.00000042        0.00004019        0.00007766        0.30718938        0.00035623        0.30572695        0.00000027        0.00001134        0.00000018        0.00000368        0.00000011        0.00000365        0.00000056        0.00001053
      33          0.493867        0.000000        0.00005391        0.00000103        0.00000555        0.00000099        0.00023676        0.30882464        0.00112388        0.30257840        0.00000009        0.00000028        0.00000147        0.00000003        0.00000017        0.00000005        0.00000022        0.00000024
      34          0.518374        0.000000        0.04149540        0.00000946        0.00000505        0.00000793        0.17429295        0.00072624        0.34866188        0.00042793        0.00001130        0.00000340        0.00000203        0.00000472        0.00000036        0.00000102        0.00000000        0.00001034
      35          0.547886        0.000000        0.25628721        0.00000772        0.00001009        0.00000014        0.00478399        0.00046881        0.11756769        0.00017138        0.00000357        0.00000133        0.00000336        0.00001028        0.00000050        0.00000659        0.00000000        0.00000064
      36          0.711298        0.000000        0.00001989        0.26067779        0.00002899        0.02257607        0.00000632        0.00002059        0.00000799        0.00002574        0.00003687        0.10912692        0.00000166        0.04207484        0.00000046        0.03767362        0.00000020        0.00223050
      37          0.711662        0.000000        0.00000136        0.02333266        0.00000278        0.26000124        0.00000790        0.00004162        0.00000991        0.00003617        0.00002771        0.00212270        0.00001152        0.03775923        0.00000029        0.04140286        0.00000056        0.10931779
      38          0.792911        0.000000        0.00002459        0.00001577        0.00000000        0.00003078        0.00006101        0.00000610        0.00005037        0.00000236        0.40882697        0.00000188        0.00000000        0.00000187        0.00000000        0.00001706        0.00000668        0.00000624
      39          0.855024        0.000000        0.09876591        0.00000125        0.00004685        0.00000245        0.39292399        0.00000432        0.23179525        0.00004164        0.00003980        0.00000142        0.00000693        0.00000049        0.00000085        0.00000071        0.00000000        0.00000153
      40          0.916989        0.000000        0.24710900        0.00008767        0.00012640        0.00008709        0.01696598        0.00000565        0.33373961        0.00000835        0.00000417        0.00000118        0.00000797        0.00001031        0.00000678        0.00000626        0.00000000        0.00000356
      41          0.938167        0.000000        0.24853148        0.00007092        0.00015460        0.00004102        0.00387379        0.00003649        0.03683707        0.00001308        0.00000095        0.00000774        0.00001265        0.00004221        0.00000773        0.00001187        0.00000000        0.00000293
      42          0.988927        0.000000        0.00008192        0.06478390        0.00013907        0.24271451        0.00002317        0.00000433        0.00016700        0.00002006        0.00000790        0.00696300        0.00000491        0.03377184        0.00000634        0.04551474        0.00000204        0.01417243
      43          0.991717        0.000000        0.00006368        0.24141139        0.00017329        0.06346653        0.00001154        0.00002593        0.00003239        0.00000920        0.00001104        0.01372581        0.00000788        0.04551430        0.00000749        0.03232695        0.00000745        0.00705597
      44          1.090497        0.000000        0.00010106        0.00006401        0.47781208        0.00000302        0.00004001        0.00001171        0.00003244        0.00003534        0.00000000        0.00000008        0.06556955        0.00003204        0.01628174        0.00005942        0.00000239        0.00000119
      45          1.199180        0.000000        0.00003544        0.00000276        0.18592777        0.00001101        0.00003566        0.00001147        0.00004595        0.00005531        0.00000019        0.00002421        0.05474200        0.00000479        0.00620370        0.00004049        0.00000532        0.00000463
      46          1.245531        0.000000        0.00000179        0.00000748        0.00000005        0.00001473        0.00000478        0.00001083        0.00000205        0.00002071        0.73318578        0.00000187        0.00000003        0.00000015        0.00000000        0.00000483        0.00000080        0.00000484
      47          1.308525        0.000000        0.00000710        0.00000248        0.00002273        0.00000713        0.00001537        0.31653092        0.00001642        0.18410293        0.00000179        0.00000119        0.00000474        0.00000332        0.00000479        0.00000657        0.00000265        0.00000760
      48          1.311592        0.000000        0.00000685        0.00000463        0.00003093        0.00000029        0.00000814        0.17862829        0.00000152        0.32062436        0.00009253        0.00001310        0.00000900        0.00001778        0.00000334        0.00001492        0.00001002        0.00000631
      49          1.483211        0.000000        0.01549215        0.00324474        0.00000271        0.04212893        0.06407562        0.00011359        0.11140504        0.00004409        0.00000467        0.06048419        0.00004590        0.02487287        0.00000076        0.00461301        0.00001843        0.03555784
      50          1.484522        0.000000        0.00514326        0.06287695        0.00000495        0.00185711        0.05337900        0.00008121        0.01152435        0.00008013        0.00000222        0.04788192        0.00002047        0.00568318        0.00000035        0.03722821        0.00004721        0.09195830
      51          1.485009        0.000000        0.02239976        0.00055959        0.00006782        0.02850095        0.12800668        0.00001362        0.14207638        0.00002314        0.00000178        0.03925670        0.00003621        0.01558120        0.00000908        0.00287822        0.00000850        0.02182130
      52          1.490909        0.000000        0.03054151        0.00842273        0.00003964        0.00379493        0.34543573        0.00010697        0.02213143        0.00022165        0.00000049        0.01170783        0.00004498        0.00285081        0.00001110        0.00517781        0.00000601        0.01524339
      53          1.626916        0.000000        0.00000000        0.00000953        0.00018326        0.00001723        0.00000000        0.00002460        0.00000003        0.00000090        0.00003500        0.00000889        0.00004816        0.00000159        0.00004114        0.00000132        0.36530885        0.00011789
      54          1.652613        0.000000        0.00004491        0.00000649        0.28966280        0.00002205        0.00003831        0.00077480        0.00004500        0.00169325        0.00000002        0.00008577        0.04009277        0.00047386        0.07364163        0.00008442        0.00020780        0.00002016
      55          1.679684        0.000000        0.00003011        0.00006459        0.00157048        0.00007133        0.00010182        0.11226210        0.00001250        0.15662161        0.00000163        0.00000537        0.00014454        0.00011001        0.00041885        0.00021270        0.00009337        0.00000384
      56          1.684603        0.000000        0.00005231        0.00001651        0.00089720        0.00000151        0.00012564        0.15741425        0.00006570        0.10812973        0.00000161        0.00000319        0.00013849        0.00010070        0.00022342        0.00001798        0.00002548        0.00000188
      57          1.738902        0.000000        0.00000146        0.00001015        0.00000017        0.00000468        0.00002589        0.00003946        0.00000682        0.00009650        0.00217156        0.00001905        0.00000032        0.00019659        0.00000005        0.00024988        0.00031160        0.00001380
      58          1.793420        0.000000        0.00000510        0.00626836        0.00099846        0.00713538        0.00003741        0.00003105        0.00000642        0.00003821        0.00000077        0.02063318        0.01299731        0.12950546        0.00078357        0.15354270        0.00003969        0.03011923
      59          1.799270        0.000000        0.00002235        0.00540497        0.00167964        0.00550138        0.00000590        0.00012452        0.00000989        0.00008866        0.00000134        0.02636670        0.03203808        0.16290002        0.00150151        0.10805708        0.00013021        0.01173511
      60          1.802438        0.000000        0.00003043        0.00120420        0.00845162        0.00119730        0.00001667        0.00003886        0.00005318        0.00007529        0.00000047        0.00086932        0.17263350        0.01748713        0.00749572        0.04878821        0.00011834        0.00952747
      61          1.841128        0.000000        0.00000008        0.00031405        0.00000135        0.00001662        0.00000007        0.00002396        0.00000007        0.00004752        0.00002066        0.00034926        0.00001689        0.00003623        0.00000362        0.00001700        0.67318330        0.00017810
      62          1.863846        0.000000        0.00001174        0.11224553        0.00001505        0.02615793        0.00001848        0.00005159        0.00000884        0.00001881        0.00005626        0.19084173        0.00002818        0.11405266        0.00000132        0.02820272        0.00102885        0.09054900
      63          1.867281        0.000000        0.00001215        0.02571039        0.00001468        0.10954679        0.00003930        0.00000932        0.00000958        0.00004143        0.00001125        0.09476694        0.00001325        0.03525016        0.00000248        0.12842204        0.00009381        0.18555284
      64          1.939866        0.000000        0.03604703        0.00001341        0.00018566        0.00002631        0.08015748        0.00004731        0.01670675        0.00000883        0.00000038        0.00060318        0.00025263        0.00013888        0.00009059        0.00063586        0.00000005        0.00024296
      65          1.991067        0.000000        0.00001530        0.01160428        0.00083211        0.01294063        0.00003267        0.00018855        0.00000926        0.00019423        0.00002378        0.02813493        0.00524610        0.22368542        0.00021172        0.14775554        0.00001659        0.03364277
      66          2.002831        0.000000        0.00006559        0.01208863        0.01092247        0.01125637        0.00011022        0.00000700        0.00006261        0.00000968        0.00000729        0.02928884        0.06619833        0.14509091        0.00295930        0.19509188        0.00000700        0.02434454
      67          2.018772        0.000000        0.00001294        0.00165216        0.09890599        0.00116357        0.00000226        0.00012329        0.00004858        0.00002205        0.00000088        0.00441718        0.58676273        0.00718112        0.02888411        0.03459807        0.00000159        0.00170405
      68          2.101986        0.000000        0.00006734        0.00001186        0.00005855        0.00002268        0.00003000        0.00691455        0.00000757        0.17637672        0.00000580        0.00004277        0.00007858        0.00008318        0.00036456        0.00018639        0.00005009        0.00007529
      69          2.105640        0.000000        0.00000881        0.00002310        0.00019392        0.00001462        0.00011723        0.17775213        0.00000609        0.00581821        0.00000603        0.00008465        0.00049548        0.00021121        0.00014250        0.00012983        0.00019054        0.00004738
      70          2.139480        0.000000        0.00005060        0.00000732        0.00000008        0.00001918        0.00000154        0.00000224        0.00000537        0.00003973        0.05402791        0.00022011        0.00000026        0.00016557        0.00000004        0.00000390        0.00005959        0.00008612
      71          2.193582        0.000000        0.03408527        0.00010862        0.00003543        0.00015844        0.01735052        0.00001238        0.02022599        0.00005449        0.00002501        0.00012363        0.00004622        0.00002885        0.00076467        0.00004139        0.00000010        0.00048043
      72          2.261206        0.000000        0.00007515        0.00273997        0.03681753        0.00094098        0.00007187        0.00008815        0.00001782        0.00007262        0.00000040        0.00624393        0.00510099        0.00006515        0.94039385        0.00094704        0.00000792        0.00060095
      73          2.280385        0.000000        0.00011085        0.17655794        0.00059610        0.08068260        0.00002704        0.00003366        0.00000798        0.00000029        0.00002108        0.47635797        0.00015094        0.01219964        0.01195302        0.06000170        0.00000024        0.08342171
      74          2.281472        0.000000        0.00007182        0.07317816        0.00000993        0.18220917        0.00001625        0.00001361        0.00000593        0.00006149        0.00002766        0.08060658        0.00001886        0.06123539        0.00013566        0.01199720        0.00002958        0.49593307
