# Projected DOS for atomic kind Ti at iteration step i = 0, E(Fermi) =     0.264284 a.u.
#     MO Eigenvalue [a.u.]      Occupation                 s                py                pz                px               d-2               d-1                d0               d+1               d+2               f-3               f-2               f-1                f0               f+1               f+2               f+3
       1         -1.900172        2.000000        0.83278275        0.00000186        0.00003355        0.00000191        0.00098746        0.00000112        0.03761077        0.00000078        0.00000041        0.00000867        0.00000019        0.00000026        0.00000066        0.00000009        0.00000000        0.00002278
       2         -1.896051        2.000000        0.81600289        0.00000297        0.00000406        0.00000313        0.00127139        0.00000256        0.04235823        0.00000197        0.00000093        0.00000998        0.00000004        0.00000058        0.00000031        0.00000099        0.00000000        0.00002216
       3         -0.977136        2.000000        0.00000439        0.44059643        0.00000344        0.48404395        0.00000309        0.00000135        0.00000166        0.00000138        0.00000039        0.01110458        0.00000004        0.00605599        0.00000005        0.00679353        0.00000004        0.01241334
       4         -0.974242        2.000000        0.00000073        0.45428703        0.00001092        0.46535973        0.00000069        0.00000050        0.00000018        0.00000052        0.00000609        0.01385810        0.00000004        0.00769418        0.00000003        0.00764204        0.00000010        0.01368235
       5         -0.967712        2.000000        0.00000036        0.45608004        0.00093236        0.46658347        0.00000050        0.00000062        0.00000041        0.00000064        0.00001255        0.00958628        0.00000017        0.00473725        0.00000406        0.00444302        0.00000003        0.00917294
       6         -0.964454        2.000000        0.00001565        0.49168442        0.00051806        0.42788591        0.00000771        0.00000013        0.00000693        0.00000009        0.00000089        0.01201617        0.00000037        0.00597926        0.00000035        0.00547942        0.00000000        0.01091849
       7         -0.961843        2.000000        0.00001043        0.00051830        0.93617799        0.00030913        0.00000319        0.00000026        0.00000335        0.00000083        0.00000001        0.00001265        0.00004893        0.00000572        0.00558294        0.00000552        0.00000003        0.00001195
       8         -0.957780        2.000000        0.00000181        0.00018909        0.93734401        0.00014982        0.00000015        0.00000047        0.00000211        0.00000059        0.00000000        0.00000735        0.00005193        0.00000251        0.00333304        0.00000395        0.00000006        0.00000944
       9         -0.398122        2.000000        0.46709842        0.00068968        0.00006748        0.00067765        0.00024297        0.00008028        0.01164188        0.00003275        0.00000224        0.00020681        0.00003874        0.00004824        0.00000224        0.00004375        0.00000000        0.00019001
      10         -0.357966        2.000000        0.04080522        0.00270772        0.00012772        0.00343712        0.19282386        0.00004784        0.20895328        0.00010435        0.00014262        0.00067929        0.00002100        0.00027937        0.00000249        0.00030215        0.00000001        0.00096088
      11         -0.326855        2.000000        0.00006609        0.13797996        0.00003590        0.10075526        0.00001725        0.00024008        0.00001229        0.00023967        0.00023673        0.04087618        0.00001091        0.01909276        0.00000079        0.01456785        0.00000016        0.03057660
      12         -0.322209        2.000000        0.00319880        0.09935490        0.00005867        0.12995180        0.00636266        0.00000996        0.00433532        0.00000691        0.00004720        0.03119633        0.00003055        0.01310707        0.00000207        0.01803434        0.00000004        0.03864487
      13          0.053602        2.000000        0.12161640        0.00009713        0.00001669        0.00014629        0.15398430        0.00006260        0.12782354        0.00000639        0.00012862        0.00001853        0.00000627        0.00008341        0.00000042        0.00011701        0.00000000        0.00006371
      14          0.065911        2.000000        0.01747146        0.00010623        0.00003015        0.00004622        0.06491563        0.00020533        0.35271026        0.00029854        0.00004609        0.00001076        0.00000442        0.00011112        0.00000141        0.00007264        0.00000000        0.00000191
      15          0.090111        2.000000        0.00000313        0.00025235        0.00000001        0.00019522        0.00027251        0.00002016        0.00001243        0.00006319        0.49228099        0.00005622        0.00000000        0.00001561        0.00000000        0.00002755        0.00001337        0.00004097
      16          0.112798        2.000000        0.00011688        0.00002480        0.00085553        0.00001575        0.00010894        0.22833922        0.00078583        0.16149695        0.00000076        0.00000701        0.00027826        0.00000196        0.00002579        0.00001170        0.00000056        0.00001103
      17          0.114771        2.000000        0.00005492        0.00022637        0.00002558        0.00024143        0.00002833        0.17013061        0.00029354        0.22111890        0.00005141        0.00008890        0.00001176        0.00010362        0.00000097        0.00008792        0.00000659        0.00009165
      18          0.174078        2.000000        0.00010508        0.07714034        0.00001204        0.03114384        0.00018979        0.00015893        0.00007133        0.00021267        0.00093387        0.02830693        0.00000087        0.00516986        0.00000033        0.02117173        0.00001302        0.00994911
      19          0.177834        2.000000        0.00025392        0.02709949        0.00000489        0.07822246        0.00075645        0.00020230        0.00012992        0.00014165        0.00046896        0.00862464        0.00000203        0.02063122        0.00000001        0.00515645        0.00000461        0.02815238
      20          0.198914        2.000000        0.00060623        0.00002019        0.07460642        0.00007333        0.00107428        0.00153365        0.00058620        0.00064318        0.00000108        0.00002054        0.00924065        0.00001126        0.00301779        0.00000659        0.00000818        0.00001994
      21          0.243119        2.000000        0.00038206        0.00008066        0.02440395        0.00001096        0.00481171        0.00119846        0.00176335        0.00134304        0.00001721        0.00003132        0.05154117        0.00000648        0.00227226        0.00003716        0.00001739        0.00000055
      22          0.252730        2.000000        0.00001210        0.00099867        0.00000729        0.00106858        0.00009487        0.00193621        0.00005349        0.00282137        0.08237534        0.00330287        0.00006205        0.01354337        0.00000131        0.01453220        0.00003718        0.00294559
      23          0.258570        2.000000        0.00032390        0.00149210        0.00001724        0.00167002        0.00278923        0.00136336        0.00168104        0.00137304        0.00004216        0.00470497        0.00001866        0.02530516        0.00000118        0.02267755        0.00000547        0.00411223
      24          0.264284        2.000000        0.00005906        0.00046022        0.00000036        0.00029642        0.00024121        0.00051665        0.00007062        0.00021663        0.10913996        0.00183477        0.00001419        0.00839647        0.00000019        0.00833807        0.00001706        0.00149447
      25          0.323861        0.000000        0.00371957        0.00004666        0.00026392        0.00010737        0.74337169        0.00147492        0.18468364        0.00011685        0.00002805        0.00000694        0.00049695        0.00019095        0.00002484        0.00002720        0.00000020        0.00004884
      26          0.334621        0.000000        0.00062749        0.00003713        0.00003105        0.00003447        0.00091270        0.48145252        0.00757450        0.46475750        0.01088000        0.00003064        0.00008367        0.00006762        0.00000179        0.00002916        0.00000011        0.00001855
      27          0.337223        0.000000        0.00020319        0.00002925        0.00000787        0.00002798        0.00147447        0.41413732        0.00253403        0.45184073        0.08437305        0.00002645        0.00000070        0.00013262        0.00000042        0.00015028        0.00000171        0.00002618
      28          0.341989        0.000000        0.00000957        0.00003341        0.00000208        0.00001867        0.00004277        0.03599017        0.00007766        0.06882752        0.69379317        0.00004529        0.00000094        0.00004041        0.00000010        0.00012331        0.00001786        0.00001546
      29          0.348033        0.000000        0.07393834        0.00005502        0.00009723        0.00003061        0.03172280        0.01099599        0.74587643        0.00224774        0.00000519        0.00003226        0.00008535        0.00011701        0.00000373        0.00019010        0.00000000        0.00002258
      30          0.391614        0.000000        0.00647659        0.00002481        0.00006925        0.00000563        0.77961610        0.00049592        0.05455451        0.00011346        0.00380496        0.00003571        0.00003230        0.00000703        0.00000212        0.00004021        0.00000018        0.00000363
      31          0.413012        0.000000        0.00001080        0.00000990        0.00000014        0.00000629        0.00341311        0.00044728        0.00031114        0.00017019        0.80474322        0.00000045        0.00000017        0.00001710        0.00000000        0.00000273        0.00001864        0.00000458
      32          0.506409        0.000000        0.07931975        0.00023171        0.00002989        0.00001810        0.09523276        0.06977110        0.25679805        0.03066382        0.00005777        0.00008560        0.00003255        0.00004169        0.00000180        0.00002017        0.00000155        0.00001162
      33          0.509072        0.000000        0.02146489        0.00046513        0.00000278        0.00060627        0.01616164        0.24805755        0.02967005        0.27282750        0.00000424        0.00009606        0.00000376        0.00007807        0.00000064        0.00004373        0.00000647        0.00019590
      34          0.517847        0.000000        0.01015215        0.00006728        0.00009312        0.00003865        0.00251613        0.29715637        0.00070180        0.28886774        0.00000098        0.00001424        0.00000722        0.00001157        0.00000280        0.00000648        0.00000183        0.00000843
      35          0.555456        0.000000        0.19350939        0.00002697        0.00015157        0.00002040        0.02294608        0.00852463        0.25439383        0.00399484        0.00005795        0.00000315        0.00003232        0.00006497        0.00000717        0.00004860        0.00000004        0.00002966
      36          0.714564        0.000000        0.00015186        0.19168587        0.00020371        0.09078080        0.00008650        0.00004801        0.00011869        0.00011177        0.00090892        0.07336719        0.00004661        0.04355593        0.00000411        0.03828737        0.00000289        0.03144683
      37          0.717917        0.000000        0.00002836        0.09337719        0.00004677        0.18967733        0.00006835        0.00080665        0.00005734        0.00072933        0.00008601        0.03029193        0.00005245        0.04118527        0.00000238        0.04393353        0.00000853        0.07327638
      38          0.776762        0.000000        0.00012639        0.00023863        0.00000002        0.00040594        0.00028089        0.00005154        0.00024294        0.00002822        0.42682506        0.00004150        0.00000024        0.00002561        0.00000001        0.00023510        0.00009123        0.00009315
      39          0.859447        0.000000        0.11225402        0.00001808        0.00074859        0.00003682        0.39772208        0.00004459        0.22057401        0.00037905        0.00013892        0.00001393        0.00006259        0.00000769        0.00001254        0.00000848        0.00000018        0.00001506
      40          0.946055        0.000000        0.24029725        0.00538381        0.00329051        0.00090597        0.01802343        0.00014746        0.10643345        0.00008249        0.00000792        0.00030176        0.00031407        0.00149815        0.00016522        0.00048590        0.00000112        0.00004096
      41          0.963127        0.000000        0.20992545        0.00255725        0.00010948        0.03518591        0.01689816        0.00021089        0.18872620        0.00019458        0.00007113        0.00022892        0.00001919        0.00219345        0.00000668        0.00565128        0.00000274        0.00211467
      42          0.973296        0.000000        0.02713992        0.05186290        0.00118740        0.22701611        0.00287047        0.00006498        0.03500857        0.00022608        0.00003485        0.00475972        0.00005841        0.02712768        0.00004927        0.04881224        0.00001946        0.01491211
      43          0.980980        0.000000        0.00254173        0.25564102        0.00123448        0.05210873        0.00016774        0.00039204        0.00041874        0.00012483        0.00011352        0.01532713        0.00007322        0.05438436        0.00004885        0.02562644        0.00007146        0.00492659
      44          1.110107        0.000000        0.00148967        0.00025840        0.44613418        0.00001038        0.00088263        0.00016616        0.00089966        0.00046204        0.00000087        0.00000190        0.08724441        0.00022548        0.01434249        0.00036734        0.00003243        0.00000091
      45          1.198020        0.000000        0.00047688        0.00002673        0.15764531        0.00006825        0.00031444        0.00013273        0.00075620        0.00058434        0.00000972        0.00020015        0.06707123        0.00004642        0.00408494        0.00036011        0.00005970        0.00004282
      46          1.251033        0.000000        0.00001429        0.00008137        0.00000317        0.00013192        0.00003859        0.00018733        0.00002215        0.00034023        0.75561971        0.00001635        0.00000253        0.00001135        0.00000010        0.00006106        0.00000658        0.00004293
      47          1.292621        0.000000        0.00003973        0.00002478        0.00028698        0.00010273        0.00009440        0.29803318        0.00010397        0.20249146        0.00001052        0.00002591        0.00002475        0.00005919        0.00005962        0.00009036        0.00003865        0.00005404
      48          1.301629        0.000000        0.00004601        0.00007498        0.00034436        0.00000432        0.00005141        0.18690990        0.00000821        0.30941557        0.00140775        0.00011021        0.00012345        0.00018751        0.00003944        0.00017344        0.00006291        0.00006964
      49          1.463856        0.000000        0.03758425        0.00024761        0.00045821        0.00186732        0.14534299        0.00060950        0.26407428        0.00002183        0.00001417        0.00227314        0.00076599        0.00127727        0.00002645        0.00080687        0.00000853        0.00166620
      50          1.480652        0.000000        0.00044294        0.01976061        0.00038577        0.06134194        0.00251484        0.00076010        0.00405302        0.00125682        0.00003204        0.08032443        0.00004808        0.02496261        0.00009229        0.01639873        0.00038764        0.06876518
      51          1.481893        0.000000        0.00199897        0.05486224        0.00016416        0.01861503        0.05404370        0.00063317        0.00129829        0.00026850        0.00000791        0.05583291        0.00041467        0.01261903        0.00001643        0.02380340        0.00026034        0.08089759
      52          1.501952        0.000000        0.02434692        0.00530653        0.00083057        0.00203874        0.39612992        0.00076262        0.00882006        0.00185649        0.00001317        0.00680121        0.00088787        0.00147901        0.00022010        0.00251923        0.00003399        0.00929266
      53          1.624288        0.000000        0.00000080        0.00009714        0.00124094        0.00011006        0.00000335        0.00026332        0.00000348        0.00000902        0.00034642        0.00007776        0.00032074        0.00003094        0.00029911        0.00001749        0.36698480        0.00082693
      54          1.649977        0.000000        0.00054991        0.00008111        0.28362965        0.00035555        0.00139002        0.00156670        0.00053961        0.00475681        0.00000263        0.00111203        0.01014089        0.00613076        0.07655970        0.00153147        0.00136486        0.00029856
      55          1.705340        0.000000        0.00017379        0.00107111        0.00257856        0.00102833        0.00074614        0.08278788        0.00007615        0.15531734        0.00002410        0.00077102        0.00020556        0.00266197        0.00071461        0.00464722        0.00160721        0.00023230
      56          1.717370        0.000000        0.00036372        0.00028366        0.00128284        0.00023565        0.00057971        0.14978835        0.00024858        0.06795975        0.00012224        0.00014072        0.00187647        0.01094999        0.00027634        0.01080667        0.00113690        0.00103830
      57          1.733979        0.000000        0.00001124        0.00045292        0.00056405        0.00064156        0.00005135        0.00429156        0.00010053        0.00622588        0.00531177        0.00081059        0.00002349        0.01612271        0.00019593        0.03194435        0.00385782        0.00423491
      58          1.740413        0.000000        0.00003316        0.00381330        0.00400877        0.00441427        0.00046395        0.00432243        0.00014121        0.00255935        0.00061503        0.02018549        0.00039303        0.13500235        0.00145689        0.13742758        0.00020899        0.02244125
      59          1.753030        0.000000        0.00020356        0.00301802        0.00140752        0.00358829        0.00008077        0.00448159        0.00013530        0.00413225        0.00012677        0.01513564        0.00082344        0.17258066        0.00057318        0.16058435        0.00418638        0.01504415
      60          1.807062        0.000000        0.00037727        0.00004030        0.01332307        0.00005622        0.00013515        0.00038413        0.00036103        0.00017824        0.00001310        0.00027403        0.15398126        0.00010737        0.01360158        0.00428692        0.07064760        0.00091512
      61          1.810485        0.000000        0.00005834        0.00019386        0.00173108        0.00002192        0.00002031        0.00046766        0.00006448        0.00120995        0.00012124        0.00024427        0.01937871        0.00030366        0.00181913        0.00157150        0.55872415        0.00055801
      62          1.873938        0.000000        0.00006298        0.07830735        0.00002909        0.02996127        0.00004715        0.00064220        0.00006907        0.00042788        0.00075214        0.21885615        0.00004726        0.07350397        0.00000434        0.04287849        0.00049994        0.12406952
      63          1.881483        0.000000        0.00017417        0.03309579        0.00009605        0.07363495        0.00027474        0.00036324        0.00013851        0.00045167        0.00006270        0.13179838        0.00014692        0.06152466        0.00007828        0.10025526        0.00034218        0.20117468
      64          1.929055        0.000000        0.03242692        0.00018162        0.00087157        0.00011290        0.06347268        0.00029862        0.01676741        0.00004310        0.00000441        0.00348729        0.00165713        0.00119246        0.00101968        0.00094959        0.00000120        0.00143811
      65          2.056373        0.000000        0.00017893        0.00868210        0.03718559        0.00567181        0.00024066        0.00527616        0.00043486        0.00368205        0.00004641        0.01089681        0.43415349        0.03447411        0.01302860        0.08277094        0.00008330        0.00363906
      66          2.068431        0.000000        0.00004282        0.01297522        0.01430554        0.01885947        0.00005653        0.00686424        0.00006670        0.00267876        0.00029331        0.00757331        0.16343351        0.18495763        0.00601015        0.05624053        0.00005959        0.02213336
      67          2.088791        0.000000        0.00609355        0.00065080        0.00131851        0.00136852        0.00109116        0.01515933        0.00105449        0.16285019        0.00003044        0.00295389        0.00726600        0.00506844        0.00347124        0.00920567        0.00064875        0.00132113
      68          2.100097        0.000000        0.00083880        0.00580159        0.00062561        0.00471997        0.00072623        0.12692423        0.00013845        0.00780241        0.00062328        0.00868777        0.00175897        0.05049757        0.00105858        0.06281311        0.00136875        0.00865236
      69          2.110600        0.000000        0.00501871        0.01332413        0.01069236        0.00932732        0.00150813        0.04339415        0.00311422        0.00484758        0.00003409        0.02437349        0.09551783        0.06040736        0.00357186        0.14129989        0.00023322        0.00734037
      70          2.119781        0.000000        0.05675506        0.00007090        0.00200598        0.00043242        0.00904591        0.00994578        0.01897846        0.01455921        0.00147516        0.00178136        0.01865168        0.00027789        0.00030376        0.00353249        0.00000194        0.00086996
      71          2.144998        0.000000        0.00109995        0.00005438        0.00000414        0.00033538        0.00079240        0.00010764        0.00084690        0.00006889        0.05503562        0.00080004        0.00010076        0.00644918        0.00002912        0.00020847        0.00034866        0.00181039
      72          2.257896        0.000000        0.00034933        0.02272580        0.01400219        0.00469068        0.00084336        0.00152890        0.00019339        0.00086812        0.00003856        0.05026835        0.02864086        0.00188918        0.83105648        0.00458267        0.00013682        0.00233256
      73          2.275766        0.000000        0.00066485        0.01439357        0.00017853        0.20832780        0.00000745        0.00006217        0.00015469        0.00179495        0.00007292        0.00119575        0.00021937        0.03877528        0.00275391        0.00416385        0.00071807        0.59087129
      74          2.282294        0.000000        0.00058594        0.18284481        0.00205189        0.02420019        0.00035034        0.00131909        0.00031764        0.00001472        0.00037890        0.54580715        0.00443717        0.00607719        0.08851479        0.03590402        0.00013754        0.00335708
