# Projected DOS for atomic kind O at iteration step i = 0, E(Fermi) =     0.265911 a.u.
#     MO Eigenvalue [a.u.]      Occupation                 s                py                pz                px               d-2               d-1                d0               d+1               d+2
       1         -1.902107        2.000000        0.04053372        0.03373259        0.00013898        0.03288208        0.01121195        0.00003452        0.00878914        0.00003393        0.00000348
       2         -1.898157        2.000000        0.03489440        0.04258480        0.00010317        0.04128890        0.00901780        0.00002029        0.01141877        0.00001932        0.00000592
       3         -0.978964        2.000000        0.00863397        0.01171260        0.00000110        0.01278461        0.00406766        0.00000713        0.00023483        0.00000614        0.00259917
       4         -0.976171        2.000000        0.01357860        0.00905674        0.00000221        0.00826227        0.00432868        0.00001098        0.00000885        0.00001277        0.00295837
       5         -0.969460        2.000000        0.00987256        0.01417383        0.00009126        0.01332755        0.00004563        0.00001421        0.01041068        0.00001223        0.00006566
       6         -0.966314        2.000000        0.01498218        0.00890302        0.00000773        0.00975248        0.00002961        0.00000241        0.01079407        0.00000182        0.00037163
       7         -0.963453        2.000000        0.00011685        0.00006932        0.03871056        0.00006939        0.00002425        0.00800211        0.00001845        0.00769484        0.00000014
       8         -0.959520        2.000000        0.00009419        0.00006599        0.03479238        0.00006702        0.00001069        0.01050455        0.00000184        0.01008406        0.00000028
       9         -0.396466        2.000000        0.51806105        0.00026194        0.00001158        0.00024584        0.00073404        0.00000224        0.00002929        0.00000178        0.00000377
      10         -0.355418        2.000000        0.54954172        0.00062643        0.00002393        0.00052683        0.00124017        0.00000061        0.00001033        0.00000054        0.00001753
      11         -0.326676        2.000000        0.64963241        0.00076275        0.00002271        0.00081441        0.00033614        0.00000085        0.00014362        0.00000151        0.00097416
      12         -0.322903        2.000000        0.64942884        0.00118023        0.00002657        0.00111490        0.00041917        0.00000113        0.00014132        0.00000132        0.00092284
      13          0.054719        2.000000        0.00921274        0.29068166        0.00036933        0.28366990        0.00010418        0.00000404        0.00765703        0.00000283        0.00000154
      14          0.067539        2.000000        0.00151423        0.27995994        0.00020453        0.27171445        0.00614012        0.00001199        0.00024915        0.00001388        0.00001557
      15          0.089694        2.000000        0.00000756        0.24773748        0.00001523        0.25587475        0.00000060        0.00000274        0.00000028        0.00000533        0.00168170
      16          0.116693        2.000000        0.00002369        0.00015266        0.60529487        0.00020908        0.00001215        0.00096465        0.00000280        0.00134890        0.00001029
      17          0.118104        2.000000        0.00003094        0.00071809        0.60365742        0.00064069        0.00000228        0.00151360        0.00001723        0.00094759        0.00000599
      18          0.175153        2.000000        0.01474541        0.06263828        0.00117570        0.74199436        0.00262271        0.00000126        0.00013748        0.00000979        0.00152261
      19          0.178233        2.000000        0.01390788        0.74555660        0.00070659        0.06377655        0.00331397        0.00000532        0.00013731        0.00000069        0.00135883
      20          0.199084        2.000000        0.00001634        0.00033956        0.91051411        0.00020174        0.00002294        0.00036732        0.00001884        0.00038624        0.00000025
      21          0.244370        2.000000        0.00003167        0.00082851        0.91490928        0.00023274        0.00007520        0.00002407        0.00013934        0.00002933        0.00000250
      22          0.255040        2.000000        0.00036349        0.48391346        0.00109857        0.41574144        0.00004653        0.00005478        0.00023577        0.00003225        0.00114241
      23          0.258679        2.000000        0.00112210        0.43447121        0.00016957        0.50147729        0.00012805        0.00001541        0.00031096        0.00002369        0.00001523
      24          0.265911        2.000000        0.00005247        0.41938637        0.00025164        0.43169134        0.00001582        0.00000460        0.00007313        0.00001005        0.00310040
      25          0.320901        0.000000        0.00080855        0.00645642        0.00466425        0.00586181        0.01617697        0.00002040        0.02908789        0.00000537        0.00000790
      26          0.333194        0.000000        0.00005706        0.00202744        0.00285143        0.00278084        0.00022353        0.01128667        0.00075327        0.01327684        0.00031752
      27          0.335528        0.000000        0.00003782        0.01767341        0.00176670        0.01781578        0.00010554        0.00958421        0.00033115        0.01141201        0.00344061
      28          0.338251        0.000000        0.00001565        0.07644708        0.00053753        0.07775804        0.00001271        0.00532888        0.00007209        0.00153325        0.01271117
      29          0.342571        0.000000        0.00459223        0.03617173        0.00160355        0.03556414        0.01502843        0.00001614        0.03999808        0.00064150        0.00000637
      30          0.392202        0.000000        0.07712748        0.03021475        0.00022242        0.02206888        0.01531412        0.00000768        0.00766506        0.00000929        0.00000526
      31          0.411862        0.000000        0.00017969        0.08955526        0.00000297        0.09913425        0.00002899        0.00000883        0.00000368        0.00002326        0.00002896
      32          0.502709        0.000000        0.00025317        0.00377120        0.35753247        0.00359744        0.00004417        0.01105177        0.00010056        0.01063585        0.00005341
      33          0.509050        0.000000        0.05373088        0.08548891        0.18539463        0.08473751        0.00015893        0.00598107        0.00076390        0.00587735        0.00001613
      34          0.512205        0.000000        0.10183670        0.07636304        0.18334731        0.07556212        0.00050589        0.00624571        0.00104945        0.00589388        0.00004214
      35          0.552724        0.000000        0.48464205        0.02241874        0.00293185        0.02319231        0.01076314        0.00015222        0.00010815        0.00012469        0.00000899
      36          0.713508        0.000000        0.31067036        0.06192324        0.00015534        0.03006170        0.00003072        0.00000745        0.04833782        0.00000219        0.07711658
      37          0.716048        0.000000        0.31328852        0.02193898        0.00013586        0.06348003        0.00007752        0.00001629        0.05147351        0.00001540        0.07550958
      38          0.781664        0.000000        0.00068467        0.28346353        0.00000192        0.27746829        0.00001214        0.00001850        0.00028170        0.00002716        0.01529169
      39          0.858241        0.000000        0.02123436        0.00700898        0.00027442        0.01031239        0.00934460        0.00002203        0.22232247        0.00001793        0.00000879
      40          0.939722        0.000000        0.04900339        0.18950778        0.00025540        0.18578643        0.11735082        0.00096288        0.00185277        0.00092102        0.00000990
      41          0.953485        0.000000        0.05459039        0.23035571        0.00002050        0.21670030        0.09008622        0.00002406        0.00172758        0.00002646        0.00003981
      42          0.977082        0.000000        0.00608173        0.39129646        0.00013320        0.09106820        0.03778351        0.00019785        0.04844769        0.00023335        0.00137366
      43          0.984268        0.000000        0.00446883        0.10019972        0.00004971        0.40192960        0.03128909        0.00023557        0.04927864        0.00042712        0.00173593
      44          1.103886        0.000000        0.00035492        0.00136562        0.01147923        0.00276700        0.00070628        0.21730005        0.00012304        0.21119039        0.00000037
      45          1.198457        0.000000        0.00035161        0.00027324        0.75989845        0.00011951        0.00004537        0.00113291        0.00071841        0.00104328        0.00019035
      46          1.249319        0.000000        0.00000377        0.00874188        0.00012448        0.00762006        0.00001372        0.00074778        0.00018254        0.00032725        0.23251434
      47          1.296984        0.000000        0.00009695        0.00003498        0.18736985        0.00021103        0.00002146        0.01631486        0.00015760        0.29427477        0.00018741
      48          1.304656        0.000000        0.00004978        0.00002789        0.18874525        0.00002875        0.00002367        0.29312746        0.00040465        0.01839743        0.00030577
      49          1.468823        0.000000        0.30907924        0.03607551        0.00205387        0.03556790        0.11172469        0.00001446        0.04153558        0.00053843        0.00409809
      50          1.481375        0.000000        0.01075581        0.21350433        0.00064615        0.14582639        0.00315233        0.00053712        0.20260616        0.00081799        0.13685297
      51          1.482429        0.000000        0.00414048        0.13247537        0.00022103        0.19438299        0.00096678        0.00064801        0.23824962        0.00015336        0.11880078
      52          1.499065        0.000000        0.00421436        0.02204473        0.00200539        0.03155224        0.00132672        0.00125387        0.46539434        0.00085364        0.01490068
      53          1.624996        0.000000        0.00001252        0.00048188        0.00243930        0.00063417        0.00005456        0.31085897        0.00055475        0.31531154        0.00042624
      54          1.650243        0.000000        0.00045326        0.00059627        0.07512706        0.00154115        0.00072915        0.27154609        0.00142998        0.25225051        0.00216462
      55          1.698562        0.000000        0.00085956        0.00244247        0.60127810        0.00380522        0.00260479        0.09674141        0.00062295        0.03052433        0.00070144
      56          1.709561        0.000000        0.00077156        0.00338947        0.61138352        0.00161548        0.00073174        0.03098420        0.00079337        0.09877676        0.00163942
      57          1.735712        0.000000        0.00097455        0.46499069        0.00338445        0.48027202        0.00044307        0.00230708        0.00034086        0.00154750        0.02613585
      58          1.754320        0.000000        0.03427447        0.22889461        0.01275219        0.19590247        0.04283178        0.00278514        0.00281651        0.00172290        0.10110350
      59          1.766607        0.000000        0.03356718        0.17896456        0.00834120        0.23636233        0.03169029        0.00465204        0.00488032        0.00136541        0.10811329
      60          1.806042        0.000000        0.00018152        0.01059069        0.75543004        0.00035036        0.00178588        0.00455100        0.00022803        0.00244901        0.00078848
      61          1.818867        0.000000        0.00025276        0.00377476        0.00459076        0.00388711        0.00030891        0.16024931        0.00014421        0.18199600        0.00132836
      62          1.872324        0.000000        0.01160336        0.01279741        0.00282231        0.01213821        0.28465253        0.00031410        0.07443174        0.00060537        0.02819471
      63          1.879107        0.000000        0.01228688        0.01171642        0.00088618        0.00599858        0.25149910        0.00041987        0.07823757        0.00009713        0.03579391
      64          1.931514        0.000000        0.00474335        0.36998868        0.00094880        0.35496427        0.12644650        0.00041239        0.01277690        0.00261000        0.00012765
      65          2.037846        0.000000        0.03861037        0.12849915        0.03146823        0.13260306        0.09997600        0.00779040        0.01197542        0.00764396        0.03356330
      66          2.048938        0.000000        0.01689155        0.08027786        0.08565628        0.04619431        0.05418678        0.01913677        0.00451996        0.02834161        0.01386538
      67          2.078645        0.000000        0.03209070        0.12568999        0.02049312        0.14263998        0.12413578        0.01751406        0.00563910        0.02422035        0.02727580
      68          2.091483        0.000000        0.00309154        0.00072255        0.03623711        0.00400478        0.00981488        0.71409294        0.00078953        0.02145578        0.00087111
      69          2.102360        0.000000        0.00151289        0.00377360        0.03967260        0.00343041        0.00288965        0.01838499        0.00092500        0.69390829        0.00187188
      70          2.139054        0.000000        0.04265061        0.04810810        0.00037481        0.18599447        0.25046217        0.00526042        0.00240423        0.00245966        0.38737181
      71          2.146162        0.000000        0.08389277        0.14469171        0.00102576        0.01144703        0.44251851        0.00666253        0.00283476        0.00045201        0.22087112
      72          2.260751        0.000000        0.00099800        0.00201651        0.00191859        0.00244290        0.00117272        0.00545276        0.00450488        0.00423324        0.00005427
      73          2.280699        0.000000        0.00490811        0.02612522        0.00021823        0.02469501        0.00097984        0.00041872        0.04660260        0.00076886        0.00206208
      74          2.284304        0.000000        0.00766191        0.01989096        0.00078287        0.02520136        0.00176731        0.00091249        0.02817881        0.00019162        0.00079155
