# Projected DOS for atomic kind Ti at iteration step i = 0, E(Fermi) =     0.263131 a.u.
#     MO Eigenvalue [a.u.]      Occupation                 s                py                pz                px               d-2               d-1                d0               d+1               d+2               f-3               f-2               f-1                f0               f+1               f+2               f+3
       1         -1.897908        2.000000        0.83128270        0.00000284        0.00004956        0.00000269        0.00101695        0.00000146        0.03771780        0.00000107        0.00000060        0.00001158        0.00000024        0.00000042        0.00000085        0.00000015        0.00000000        0.00002983
       2         -1.893882        2.000000        0.81417036        0.00000443        0.00000648        0.00000399        0.00131851        0.00000333        0.04270115        0.00000252        0.00000131        0.00001366        0.00000006        0.00000071        0.00000038        0.00000134        0.00000000        0.00002974
       3         -0.974990        2.000000        0.00000638        0.43928620        0.00001507        0.48646745        0.00000400        0.00000189        0.00000211        0.00000192        0.00000053        0.01102910        0.00000004        0.00600958        0.00000006        0.00680448        0.00000006        0.01243914
       4         -0.972227        2.000000        0.00000093        0.45404094        0.00000555        0.46630217        0.00000091        0.00000077        0.00000022        0.00000081        0.00000808        0.01383087        0.00000005        0.00765046        0.00000003        0.00759721        0.00000014        0.01363764
       5         -0.965746        2.000000        0.00000050        0.45455799        0.00082002        0.46755130        0.00000070        0.00000063        0.00000062        0.00000066        0.00001720        0.00974313        0.00000020        0.00474570        0.00000312        0.00443700        0.00000005        0.00929860
       6         -0.962554        2.000000        0.00002467        0.49468906        0.00025133        0.42402909        0.00001014        0.00000012        0.00001184        0.00000008        0.00000113        0.01221880        0.00000042        0.00597361        0.00000098        0.00541830        0.00000001        0.01098947
       7         -0.960018        2.000000        0.00001954        0.00066999        0.93306917        0.00019759        0.00000521        0.00000037        0.00000537        0.00000125        0.00000001        0.00001338        0.00004603        0.00000556        0.00557798        0.00000578        0.00000004        0.00001177
       8         -0.956080        2.000000        0.00000352        0.00003487        0.93418228        0.00000339        0.00000021        0.00000093        0.00000291        0.00000093        0.00000000        0.00000163        0.00004867        0.00000016        0.00326545        0.00000069        0.00000007        0.00000214
       9         -0.400038        2.000000        0.46411823        0.00091129        0.00011283        0.00089279        0.00039394        0.00010932        0.01427250        0.00004808        0.00000351        0.00027691        0.00006050        0.00005642        0.00000355        0.00005223        0.00000000        0.00025464
      10         -0.360882        2.000000        0.04517096        0.00303486        0.00021330        0.00384159        0.18302863        0.00006896        0.21715398        0.00014053        0.00018468        0.00076881        0.00003331        0.00027460        0.00000395        0.00028792        0.00000002        0.00108409
      11         -0.326904        2.000000        0.00009249        0.13759144        0.00004964        0.09985722        0.00002671        0.00038106        0.00001776        0.00037968        0.00032320        0.04117200        0.00001462        0.01781051        0.00000108        0.01359042        0.00000023        0.03060994
      12         -0.321340        2.000000        0.00408177        0.09840745        0.00007710        0.12812799        0.00719964        0.00001959        0.00502475        0.00001282        0.00006109        0.03138002        0.00003779        0.01205027        0.00000270        0.01672329        0.00000006        0.03846838
      13          0.052304        2.000000        0.11410742        0.00013897        0.00002688        0.00021355        0.15929837        0.00006468        0.12507016        0.00001020        0.00017919        0.00002364        0.00000746        0.00011683        0.00000037        0.00016213        0.00000001        0.00008486
      14          0.063913        2.000000        0.02113295        0.00014564        0.00004867        0.00006147        0.05720600        0.00026605        0.35206150        0.00038286        0.00004981        0.00001689        0.00000600        0.00014925        0.00000125        0.00009614        0.00000000        0.00000143
      15          0.090565        2.000000        0.00000359        0.00036664        0.00000002        0.00029622        0.00036402        0.00002773        0.00001382        0.00011615        0.49024614        0.00008683        0.00000001        0.00002086        0.00000000        0.00003755        0.00002273        0.00006619
      16          0.108530        2.000000        0.00016137        0.00003805        0.00117532        0.00002820        0.00015850        0.22476734        0.00094706        0.16476288        0.00000160        0.00001035        0.00037174        0.00000258        0.00003546        0.00001868        0.00000058        0.00001975
      17          0.111078        2.000000        0.00007022        0.00034227        0.00003218        0.00036060        0.00004262        0.17503263        0.00036401        0.21587200        0.00011268        0.00013686        0.00001398        0.00015750        0.00000116        0.00013219        0.00001027        0.00013907
      18          0.172852        2.000000        0.00014623        0.07516631        0.00001391        0.03282871        0.00024649        0.00017558        0.00009081        0.00031092        0.00140603        0.02714624        0.00000153        0.00459886        0.00000020        0.02057207        0.00001936        0.01121004
      19          0.177341        2.000000        0.00032435        0.02801864        0.00000468        0.07640766        0.00094049        0.00033535        0.00016648        0.00019719        0.00074149        0.00969656        0.00000274        0.01989520        0.00000013        0.00456334        0.00000693        0.02706617
      20          0.198797        2.000000        0.00095389        0.00002482        0.07590382        0.00008668        0.00166260        0.00187548        0.00077499        0.00076581        0.00000212        0.00002797        0.01000347        0.00001245        0.00314777        0.00000666        0.00001188        0.00002253
      21          0.241799        2.000000        0.00049629        0.00011436        0.02658528        0.00001428        0.00712966        0.00168101        0.00211806        0.00177969        0.00005519        0.00004505        0.05045232        0.00001785        0.00236725        0.00005117        0.00002323        0.00000124
      22          0.249889        2.000000        0.00000972        0.00089770        0.00001931        0.00114843        0.00008934        0.00235050        0.00004970        0.00355751        0.11289350        0.00251602        0.00009716        0.01168341        0.00000288        0.01186436        0.00006012        0.00228864
      23          0.258613        2.000000        0.00050994        0.00168734        0.00003435        0.00188496        0.00422454        0.00211784        0.00240543        0.00222878        0.00000613        0.00447094        0.00001519        0.02667123        0.00000198        0.02417068        0.00000727        0.00384514
      24          0.263131        2.000000        0.00007886        0.00065495        0.00000093        0.00040258        0.00029882        0.00114943        0.00008693        0.00065226        0.08555443        0.00242088        0.00002732        0.01185335        0.00000050        0.01203366        0.00002215        0.00192979
      25          0.327150        0.000000        0.00320156        0.00006780        0.00040206        0.00015183        0.76038417        0.00185691        0.16431612        0.00011589        0.00006926        0.00000966        0.00071273        0.00029405        0.00003797        0.00004891        0.00000042        0.00006668
      26          0.336295        0.000000        0.00051700        0.00005331        0.00004521        0.00005126        0.00083529        0.48669432        0.00593311        0.46233575        0.00819611        0.00004877        0.00011883        0.00011851        0.00000271        0.00005209        0.00000010        0.00002966
      27          0.338833        0.000000        0.00010921        0.00003817        0.00001191        0.00003688        0.00171356        0.41875412        0.00136146        0.48239326        0.05385617        0.00003873        0.00000083        0.00020819        0.00000060        0.00024947        0.00000157        0.00003673
      28          0.346159        0.000000        0.00001350        0.00003367        0.00000196        0.00001966        0.00007662        0.02203131        0.00006375        0.04311530        0.72117753        0.00004888        0.00000103        0.00004327        0.00000009        0.00013867        0.00003091        0.00001632
      29          0.354024        0.000000        0.07862059        0.00008040        0.00014063        0.00004650        0.02644785        0.00792979        0.74989545        0.00150978        0.00002954        0.00004535        0.00010219        0.00016935        0.00000480        0.00028895        0.00000000        0.00002914
      30          0.391033        0.000000        0.00586238        0.00003026        0.00011642        0.00000836        0.78118611        0.00068080        0.04963394        0.00012211        0.00445469        0.00004766        0.00004808        0.00001070        0.00000345        0.00005826        0.00000034        0.00000528
      31          0.414389        0.000000        0.00001009        0.00001427        0.00000026        0.00000861        0.00397569        0.00061298        0.00036557        0.00025585        0.80165285        0.00000047        0.00000029        0.00002372        0.00000001        0.00000425        0.00002985        0.00000591
      32          0.503150        0.000000        0.11633354        0.00017753        0.00003984        0.00004377        0.09604571        0.00583379        0.27474153        0.00082716        0.00006911        0.00004915        0.00005053        0.00009882        0.00000079        0.00002658        0.00000014        0.00006545
      33          0.515437        0.000000        0.00378400        0.00091639        0.00001439        0.00091291        0.00060797        0.31093481        0.00038783        0.29007262        0.00000126        0.00022543        0.00000205        0.00008584        0.00000244        0.00006978        0.00001268        0.00022888
      34          0.525315        0.000000        0.00828132        0.00010302        0.00012974        0.00007018        0.00069600        0.29390190        0.00362741        0.29467422        0.00000037        0.00002284        0.00001239        0.00001356        0.00000496        0.00001201        0.00000218        0.00001404
      35          0.558724        0.000000        0.17849925        0.00002561        0.00023648        0.00004052        0.02574917        0.01390607        0.28606250        0.00684484        0.00008127        0.00000222        0.00004340        0.00008034        0.00001001        0.00006138        0.00000010        0.00004967
      36          0.715762        0.000000        0.00020353        0.18989608        0.00025497        0.09218090        0.00012284        0.00008058        0.00016874        0.00018475        0.00151138        0.07096830        0.00005696        0.04457905        0.00000532        0.03826394        0.00000486        0.03139473
      37          0.719953        0.000000        0.00003535        0.09513408        0.00006270        0.18751744        0.00009788        0.00123509        0.00007461        0.00110408        0.00011088        0.03015238        0.00006653        0.04154048        0.00000330        0.04486508        0.00001307        0.07102342
      38          0.771371        0.000000        0.00014749        0.00041049        0.00000007        0.00061920        0.00031301        0.00006643        0.00027717        0.00004319        0.43257518        0.00007956        0.00000042        0.00004505        0.00000001        0.00036863        0.00014119        0.00014403
      39          0.860655        0.000000        0.11538105        0.00002807        0.00118501        0.00005878        0.39937932        0.00006057        0.21801310        0.00050327        0.00014135        0.00001954        0.00008279        0.00001188        0.00001883        0.00001253        0.00000037        0.00002235
      40          0.950941        0.000000        0.23472095        0.01299509        0.00409954        0.00191771        0.02263525        0.00023190        0.06090658        0.00013703        0.00000690        0.00082302        0.00041139        0.00369779        0.00021630        0.00113783        0.00000331        0.00010715
      41          0.965983        0.000000        0.02912714        0.03360191        0.00035115        0.25085940        0.00194678        0.00010213        0.01769064        0.00045294        0.00012426        0.00295889        0.00000203        0.02145969        0.00001084        0.05163932        0.00002958        0.01656510
      42          0.977348        0.000000        0.01859496        0.26505574        0.00302866        0.02193867        0.00238802        0.00067181        0.02664096        0.00013878        0.00012972        0.01670540        0.00023256        0.05797160        0.00011494        0.01847203        0.00008247        0.00261177
      43          0.979145        0.000000        0.19253685        0.00665103        0.00126454        0.04330968        0.01768018        0.00017697        0.21360094        0.00021285        0.00005213        0.00043516        0.00016097        0.00429062        0.00005381        0.01077976        0.00001402        0.00311715
      44          1.117306        0.000000        0.00244924        0.00026280        0.43428288        0.00001130        0.00158401        0.00025559        0.00178226        0.00070249        0.00000278        0.00000348        0.09437138        0.00028446        0.01368807        0.00044698        0.00004781        0.00000040
      45          1.197509        0.000000        0.00072512        0.00003523        0.14925219        0.00008168        0.00041372        0.00019519        0.00120311        0.00080868        0.00001363        0.00025568        0.07029474        0.00006265        0.00349300        0.00047257        0.00008427        0.00005575
      46          1.252955        0.000000        0.00001871        0.00011488        0.00000536        0.00017415        0.00005012        0.00032871        0.00002989        0.00057009        0.76225219        0.00002206        0.00000442        0.00002459        0.00000018        0.00009256        0.00000893        0.00005682
      47          1.288193        0.000000        0.00004424        0.00003371        0.00042880        0.00016046        0.00011004        0.29228179        0.00011913        0.20804909        0.00001633        0.00004498        0.00002673        0.00009893        0.00008801        0.00014783        0.00005827        0.00006703
      48          1.298461        0.000000        0.00005813        0.00012342        0.00049036        0.00000690        0.00006187        0.19026171        0.00001045        0.30502176        0.00230514        0.00013975        0.00018645        0.00026844        0.00005755        0.00024848        0.00007327        0.00009716
      49          1.459521        0.000000        0.03795022        0.00029121        0.00065254        0.00158757        0.14153687        0.00072802        0.26350900        0.00003491        0.00001834        0.00182489        0.00121387        0.00112744        0.00003293        0.00111687        0.00001152        0.00148575
      50          1.480124        0.000000        0.00033831        0.02602326        0.00052603        0.05735377        0.00206692        0.00130274        0.00291676        0.00190298        0.00003462        0.07516287        0.00007190        0.02155725        0.00012613        0.01775043        0.00054751        0.07137285
      51          1.481563        0.000000        0.00145255        0.05104683        0.00027684        0.02576314        0.04988593        0.00075346        0.00132074        0.00028954        0.00001075        0.05771082        0.00058726        0.01400923        0.00003222        0.02087281        0.00031486        0.07706372
      52          1.504767        0.000000        0.02270047        0.00481116        0.00142968        0.00172838        0.40557790        0.00094984        0.00778479        0.00241063        0.00002338        0.00600177        0.00138565        0.00124494        0.00037248        0.00205188        0.00003647        0.00826609
      53          1.623640        0.000000        0.00000175        0.00013562        0.00139617        0.00013000        0.00000949        0.00035891        0.00000689        0.00001708        0.00048788        0.00010266        0.00041576        0.00004809        0.00034689        0.00003380        0.36758930        0.00100051
      54          1.650190        0.000000        0.00080793        0.00012325        0.27668337        0.00053885        0.00244902        0.00178949        0.00079400        0.00538599        0.00000504        0.00170303        0.00476597        0.00977542        0.07691361        0.00274869        0.00156780        0.00045237
      55          1.710261        0.000000        0.00021397        0.00216366        0.00112936        0.00162335        0.00089709        0.06417966        0.00010726        0.14332844        0.00003369        0.00366667        0.00031647        0.01773292        0.00028888        0.01733536        0.00207689        0.00046696
      56          1.718046        0.000000        0.00019912        0.00104785        0.00059179        0.00296373        0.00007611        0.06012628        0.00007325        0.01516332        0.00062375        0.00522282        0.00188469        0.08903204        0.00035999        0.12169680        0.00246054        0.01721361
      57          1.730780        0.000000        0.00024976        0.00265050        0.00845420        0.00192940        0.00112043        0.08964068        0.00037664        0.05146918        0.00000385        0.01100134        0.00061578        0.04903642        0.00254497        0.05739554        0.00015562        0.01014743
      58          1.732711        0.000000        0.00009924        0.00068069        0.00084970        0.00036952        0.00009457        0.00979340        0.00012301        0.00403428        0.00586516        0.00558622        0.00012758        0.07082311        0.00033438        0.03952841        0.00158826        0.00068671
      59          1.741278        0.000000        0.00023842        0.00129927        0.00189882        0.00201334        0.00012250        0.01213820        0.00019769        0.01349038        0.00181320        0.00786847        0.00053700        0.11374145        0.00072364        0.11800285        0.01340948        0.01166394
      60          1.801197        0.000000        0.00001494        0.00014673        0.00052940        0.00002002        0.00000781        0.00146628        0.00000849        0.00107402        0.00014976        0.00018958        0.00477094        0.00085363        0.00064073        0.00016923        0.59408113        0.00048460
      61          1.808807        0.000000        0.00066483        0.00002164        0.01594082        0.00009429        0.00024281        0.00006205        0.00058123        0.00122794        0.00000621        0.00033525        0.15434512        0.00000607        0.01785602        0.00568330        0.01756444        0.00095632
      62          1.874544        0.000000        0.00006550        0.06565017        0.00002048        0.03397724        0.00002729        0.00090328        0.00007926        0.00076031        0.00108851        0.21441462        0.00004167        0.06050236        0.00001305        0.04602328        0.00044633        0.14138944
      63          1.882952        0.000000        0.00025328        0.03900454        0.00013886        0.06189647        0.00029236        0.00068177        0.00021971        0.00062416        0.00004581        0.14985820        0.00019449        0.06529826        0.00012674        0.08810260        0.00036236        0.19412228
      64          1.927013        0.000000        0.03162617        0.00023108        0.00096536        0.00014427        0.05830861        0.00031015        0.01688933        0.00004487        0.00000650        0.00432942        0.00218970        0.00162160        0.00158537        0.00095404        0.00000412        0.00187108
      65          2.069938        0.000000        0.00194142        0.00335302        0.03120136        0.00168884        0.00077396        0.02746082        0.00035576        0.01878514        0.00001419        0.00294309        0.48368278        0.00609338        0.01529624        0.02442177        0.00028751        0.00084895
      66          2.080473        0.000000        0.04588925        0.00072091        0.00221866        0.00034567        0.00609725        0.00747686        0.01326384        0.06360743        0.00005937        0.00626671        0.02028246        0.00876808        0.00334086        0.01668541        0.00044541        0.00226215
      67          2.091356        0.000000        0.01653317        0.00983157        0.00225366        0.01275851        0.00194506        0.00160893        0.00583259        0.01637232        0.00117731        0.01195555        0.02953255        0.13009282        0.00148337        0.06742520        0.00027361        0.01978709
      68          2.099625        0.000000        0.00998593        0.00996271        0.00022224        0.01129988        0.00144419        0.06170521        0.00432468        0.06742833        0.00012854        0.00430476        0.00443628        0.05329347        0.00005283        0.02687956        0.00160863        0.00580149
      69          2.110561        0.000000        0.00531837        0.00216892        0.01157661        0.00173199        0.00133465        0.10504701        0.00191868        0.02681267        0.00032627        0.00301435        0.11339319        0.03636717        0.00370550        0.02262018        0.00067066        0.00738717
      70          2.137629        0.000000        0.00047034        0.01550693        0.00721559        0.01096194        0.00006612        0.01077016        0.00047717        0.00629302        0.00526534        0.04032840        0.08253448        0.07131367        0.00242615        0.18279760        0.00000034        0.01261308
      71          2.149683        0.000000        0.00027698        0.00132779        0.00017085        0.00180142        0.00038499        0.00012661        0.00024671        0.00030753        0.05207001        0.00200256        0.00220801        0.02815529        0.00004537        0.01008494        0.00039894        0.00663276
      72          2.253340        0.000000        0.00043319        0.02977459        0.00980808        0.00488913        0.00135010        0.00255860        0.00029225        0.00127260        0.00007688        0.06487893        0.03938838        0.00301345        0.78221647        0.00487650        0.00019619        0.00167921
      73          2.268827        0.000000        0.00069991        0.00867186        0.00021030        0.20628390        0.00003589        0.00017284        0.00031995        0.00329596        0.00005517        0.00067431        0.00021346        0.02978087        0.00195233        0.00619125        0.00103079        0.57362557
      74          2.278361        0.000000        0.00074241        0.17228893        0.00202005        0.01593935        0.00062356        0.00240583        0.00056417        0.00003454        0.00057539        0.51751703        0.00758522        0.01010418        0.11274153        0.02673239        0.00025072        0.00109133
