# Projected DOS for atomic kind O at iteration step i = 0, E(Fermi) =     0.273714 a.u.
#     MO Eigenvalue [a.u.]      Occupation                 s                py                pz                px               d-2               d-1                d0               d+1               d+2
       1         -1.906763        2.000000        0.04580782        0.02541934        0.00000307        0.02531061        0.01525610        0.00000101        0.00589626        0.00000101        0.00000008
       2         -1.905429        2.000000        0.02509446        0.05068034        0.00000373        0.05046237        0.00733433        0.00000051        0.01146545        0.00000049        0.00000026
       3         -0.983549        2.000000        0.01143928        0.01154659        0.00000009        0.01252290        0.00512828        0.00000016        0.00029280        0.00000019        0.00238996
       4         -0.982688        2.000000        0.01291591        0.01129676        0.00000010        0.01021697        0.00522590        0.00000026        0.00014302        0.00000035        0.00252065
       5         -0.974055        2.000000        0.00996501        0.01346702        0.00000257        0.01284670        0.00000205        0.00000042        0.00889400        0.00000039        0.00031554
       6         -0.972858        2.000000        0.01144559        0.01132391        0.00000116        0.01210481        0.00003066        0.00000031        0.00883123        0.00000029        0.00043999
       7         -0.967477        2.000000        0.00000397        0.00000317        0.03952525        0.00000161        0.00000079        0.00528362        0.00000049        0.00523791        0.00000002
       8         -0.965925        2.000000        0.00000432        0.00000383        0.02350123        0.00000450        0.00000035        0.01080752        0.00000032        0.01073960        0.00000007
       9         -0.392325        2.000000        0.51947334        0.00009187        0.00000034        0.00008946        0.00058347        0.00000005        0.00000540        0.00000004        0.00000018
      10         -0.349040        2.000000        0.55877805        0.00028388        0.00000100        0.00027835        0.00104066        0.00000001        0.00000080        0.00000001        0.00000116
      11         -0.325236        2.000000        0.64367291        0.00021612        0.00000095        0.00023764        0.00018736        0.00000003        0.00016571        0.00000005        0.00101863
      12         -0.324402        2.000000        0.64413013        0.00027289        0.00000079        0.00025325        0.00019484        0.00000004        0.00016136        0.00000005        0.00101191
      13          0.057585        2.000000        0.00530870        0.28492225        0.00000885        0.28365283        0.00007586        0.00000011        0.00687062        0.00000009        0.00000006
      14          0.070951        2.000000        0.00064169        0.27140799        0.00000801        0.27011567        0.00507220        0.00000039        0.00005637        0.00000050        0.00000048
      15          0.088606        2.000000        0.00000020        0.24905206        0.00000016        0.25051471        0.00000003        0.00000007        0.00000001        0.00000017        0.00151172
      16          0.126833        2.000000        0.00000075        0.00001595        0.60438196        0.00001649        0.00000021        0.00098639        0.00000047        0.00134335        0.00000020
      17          0.127127        2.000000        0.00000067        0.00000539        0.60436543        0.00000376        0.00000027        0.00134997        0.00000016        0.00095437        0.00000038
      18          0.178530        2.000000        0.01166195        0.07744537        0.00002868        0.73125529        0.00187849        0.00000007        0.00019359        0.00000035        0.00107940
      19          0.179045        2.000000        0.01150696        0.73203410        0.00002053        0.07755561        0.00199244        0.00000018        0.00019137        0.00000002        0.00105414
      20          0.199867        2.000000        0.00000054        0.00001206        0.91967787        0.00000568        0.00000075        0.00027448        0.00000073        0.00027711        0.00000001
      21          0.247991        2.000000        0.00000114        0.00003319        0.92576397        0.00000678        0.00000273        0.00002118        0.00000537        0.00002267        0.00000011
      22          0.259802        2.000000        0.00007716        0.71152006        0.00003076        0.23722315        0.00000109        0.00000139        0.00022890        0.00000071        0.00002220
      23          0.259975        2.000000        0.00012936        0.23715436        0.00001250        0.71157614        0.00000108        0.00000019        0.00022916        0.00000107        0.00000391
      24          0.273714        2.000000        0.00000044        0.42223915        0.00000035        0.42433325        0.00000081        0.00000114        0.00000109        0.00000023        0.00436624
      25          0.312636        0.000000        0.00107072        0.00637524        0.00014329        0.00590130        0.01767509        0.00000123        0.02617348        0.00000017        0.00000034
      26          0.326513        0.000000        0.00000418        0.07658120        0.00000529        0.07674191        0.00001280        0.00005984        0.00004232        0.00000447        0.01910024
      27          0.327042        0.000000        0.00482149        0.03726200        0.00007434        0.03731894        0.01347979        0.00001734        0.04155435        0.00015166        0.00001945
      28          0.329955        0.000000        0.00002802        0.00034885        0.00198444        0.00032551        0.00007227        0.01322112        0.00020611        0.01380574        0.00001866
      29          0.330701        0.000000        0.00000703        0.00032662        0.00195160        0.00031023        0.00001651        0.01407478        0.00004615        0.01350746        0.00003359
      30          0.393672        0.000000        0.08496040        0.02177805        0.00001009        0.02004334        0.01656306        0.00000026        0.00586179        0.00000029        0.00000026
      31          0.409053        0.000000        0.00001099        0.09126500        0.00000013        0.09317419        0.00000174        0.00000015        0.00000018        0.00000062        0.00009741
      32          0.488483        0.000000        0.00001146        0.00002820        0.36812651        0.00002722        0.00000129        0.00920666        0.00000244        0.00915691        0.00000163
      33          0.490292        0.000000        0.00002597        0.00006828        0.36792993        0.00006761        0.00000103        0.00943668        0.00000012        0.00935813        0.00000006
      34          0.519700        0.000000        0.04268240        0.18931723        0.00013989        0.18925004        0.00010944        0.00000490        0.00229343        0.00000437        0.00000200
      35          0.547332        0.000000        0.61444186        0.00554795        0.00004217        0.00561566        0.01085044        0.00000196        0.00018512        0.00000163        0.00000031
      36          0.710564        0.000000        0.32492532        0.04499585        0.00000711        0.02430592        0.00001486        0.00000030        0.05267912        0.00000019        0.07804987
      37          0.711120        0.000000        0.32359524        0.02489336        0.00000399        0.04718137        0.00001025        0.00000021        0.05194042        0.00000012        0.07829781
      38          0.795134        0.000000        0.00002206        0.29136499        0.00000005        0.29028414        0.00000047        0.00000068        0.00001660        0.00000107        0.01197736
      39          0.854312        0.000000        0.02247131        0.00874315        0.00000870        0.00982926        0.00683626        0.00000062        0.22965964        0.00000053        0.00000062
      40          0.911852        0.000000        0.03943617        0.07168885        0.00000204        0.06990924        0.21019857        0.00001315        0.00130484        0.00001263        0.00000050
      41          0.935905        0.000000        0.04633226        0.33265364        0.00000462        0.33140813        0.00079784        0.00001303        0.00216149        0.00001360        0.00000051
      42          0.991699        0.000000        0.00368823        0.40720345        0.00000663        0.10486919        0.02973243        0.00000894        0.04759524        0.00001058        0.00157579
      43          0.992958        0.000000        0.00337875        0.10658844        0.00000155        0.40889061        0.02885862        0.00001053        0.04742863        0.00001960        0.00170440
      44          1.087983        0.000000        0.00000892        0.00004208        0.00930032        0.00011821        0.00001607        0.21520782        0.00000303        0.21418481        0.00000006
      45          1.199285        0.000000        0.00001368        0.00001305        0.75011543        0.00000468        0.00000126        0.00015520        0.00002639        0.00016042        0.00000758
      46          1.244811        0.000000        0.00000011        0.00602559        0.00000240        0.00580692        0.00000066        0.00002079        0.00000549        0.00000975        0.25821743
      47          1.311280        0.000000        0.00000395        0.00000142        0.17587815        0.00000733        0.00000065        0.02644237        0.00000737        0.29711540        0.00000657
      48          1.312755        0.000000        0.00000141        0.00000104        0.17582385        0.00000126        0.00000109        0.29729673        0.00001613        0.02700439        0.00000836
      49          1.484764        0.000000        0.01025441        0.21615070        0.00002966        0.14053072        0.00194433        0.00001937        0.21231206        0.00002917        0.12640387
      50          1.485311        0.000000        0.00481523        0.12394688        0.00001312        0.18782119        0.00046519        0.00002190        0.25617020        0.00000529        0.10951714
      51          1.487507        0.000000        0.17856539        0.03240646        0.00006993        0.04184826        0.06230916        0.00000762        0.21164068        0.00001018        0.00767839
      52          1.489139        0.000000        0.12447030        0.03806809        0.00007909        0.04149125        0.04331765        0.00003120        0.28337815        0.00002935        0.01338165
      53          1.627308        0.000000        0.00000035        0.00001824        0.00009841        0.00002114        0.00000284        0.31691572        0.00002424        0.31781778        0.00001598
      54          1.653383        0.000000        0.00001132        0.00001835        0.07860668        0.00004654        0.00002151        0.25734091        0.00002207        0.25369766        0.00004737
      55          1.675955        0.000000        0.00001840        0.00004807        0.59923962        0.00003449        0.00006142        0.09528215        0.00002702        0.03226408        0.00000939
      56          1.678519        0.000000        0.00002899        0.00001788        0.60095453        0.00000490        0.00002352        0.03233154        0.00003297        0.09569472        0.00001007
      57          1.739608        0.000000        0.00000822        0.48319372        0.00002297        0.48758773        0.00000178        0.00004741        0.00001154        0.00006884        0.02696871
      58          1.800109        0.000000        0.00407449        0.04097618        0.66810352        0.01125037        0.00492288        0.00107283        0.00041198        0.00103789        0.01106878
      59          1.803230        0.000000        0.02676827        0.19955875        0.07725138        0.22459630        0.03424258        0.00014745        0.00275141        0.00013573        0.07985394
      60          1.805851        0.000000        0.02918708        0.23065763        0.00945012        0.23628014        0.03364342        0.00013556        0.00359985        0.00006598        0.08856554
      61          1.845901        0.000000        0.00003579        0.00013192        0.00002126        0.00010207        0.00034577        0.15801606        0.00000899        0.16094704        0.00003522
      62          1.861406        0.000000        0.01378258        0.01800924        0.00009205        0.00415563        0.34311428        0.00010556        0.05416732        0.00013016        0.00794845
      63          1.863175        0.000000        0.01330992        0.00410756        0.00003295        0.01665797        0.33284142        0.00001993        0.05601069        0.00001126        0.00974254
      64          1.941987        0.000000        0.00425001        0.37170892        0.00005530        0.36869702        0.11591363        0.00000978        0.00249056        0.00011518        0.00002994
      65          1.983942        0.000000        0.06767575        0.16029639        0.00032425        0.12965499        0.05952512        0.00010186        0.04545975        0.00005060        0.06121265
      66          1.989947        0.000000        0.06600008        0.13004300        0.00206288        0.15794225        0.06322523        0.00037666        0.04260052        0.00027174        0.05786756
      67          2.010259        0.000000        0.00092515        0.00161684        0.15204545        0.00290850        0.00114366        0.02249458        0.00054795        0.02221585        0.00080614
      68          2.105443        0.000000        0.00002243        0.00002934        0.05817031        0.00002098        0.00009563        0.75692439        0.00001625        0.00363497        0.00005186
      69          2.107150        0.000000        0.00000663        0.00002427        0.05839864        0.00013877        0.00002193        0.00381015        0.00001547        0.75621310        0.00001528
      70          2.139807        0.000000        0.00002845        0.14370171        0.00000026        0.14628063        0.00009302        0.00006873        0.00002105        0.00002301        0.65594525
      71          2.202025        0.000000        0.11619953        0.01917500        0.00001725        0.01739127        0.77214053        0.00008730        0.00692578        0.00000535        0.00008656
      72          2.260167        0.000000        0.00011599        0.00007793        0.00345056        0.00007982        0.00028836        0.00008197        0.00007812        0.00005725        0.00002790
      73          2.278520        0.000000        0.02874202        0.01690925        0.00004383        0.01879466        0.03244108        0.00000466        0.00152323        0.00000354        0.00986368
      74          2.279271        0.000000        0.02709392        0.01893537        0.00000327        0.01754007        0.03136153        0.00000304        0.00203789        0.00001465        0.00850160
