# Projected DOS for atomic kind O at iteration step i = 0, E(Fermi) =     0.264284 a.u.
#     MO Eigenvalue [a.u.]      Occupation                 s                py                pz                px               d-2               d-1                d0               d+1               d+2
       1         -1.900172        2.000000        0.04117246        0.03403396        0.00022597        0.03293689        0.01072136        0.00005553        0.00934099        0.00005445        0.00000511
       2         -1.896051        2.000000        0.03610149        0.04239996        0.00015491        0.04078413        0.00872197        0.00003080        0.01208718        0.00002920        0.00000820
       3         -0.977136        2.000000        0.00803514        0.01153037        0.00000132        0.01272018        0.00376337        0.00001198        0.00018917        0.00000981        0.00271502
       4         -0.974242        2.000000        0.01333953        0.00885496        0.00000388        0.00809783        0.00401346        0.00001763        0.00003690        0.00001980        0.00307277
       5         -0.967712        2.000000        0.01042500        0.01384684        0.00014500        0.01291203        0.00006646        0.00002193        0.01097230        0.00001864        0.00003710
       6         -0.964454        2.000000        0.01597304        0.00835617        0.00002564        0.00919013        0.00002291        0.00000496        0.01158202        0.00000401        0.00032725
       7         -0.961843        2.000000        0.00017967        0.00009716        0.04032479        0.00010625        0.00003809        0.00846210        0.00003039        0.00807021        0.00000011
       8         -0.957780        2.000000        0.00011387        0.00007743        0.03725428        0.00007793        0.00001478        0.01094615        0.00000318        0.01041594        0.00000011
       9         -0.398122        2.000000        0.51735477        0.00036364        0.00001936        0.00034166        0.00080030        0.00000399        0.00004490        0.00000323        0.00000501
      10         -0.357966        2.000000        0.54569477        0.00082285        0.00003606        0.00067221        0.00133364        0.00000121        0.00002251        0.00000114        0.00002069
      11         -0.326855        2.000000        0.65150855        0.00109376        0.00003398        0.00114662        0.00041252        0.00000124        0.00013845        0.00000226        0.00095413
      12         -0.322209        2.000000        0.65083296        0.00166063        0.00003879        0.00156479        0.00052581        0.00000158        0.00013943        0.00000189        0.00089262
      13          0.053602        2.000000        0.01080238        0.29258766        0.00063005        0.28373278        0.00011799        0.00000629        0.00794496        0.00000433        0.00000225
      14          0.065911        2.000000        0.00195374        0.28260945        0.00028632        0.27219613        0.00651317        0.00001829        0.00034700        0.00002053        0.00002319
      15          0.090111        2.000000        0.00001208        0.24737411        0.00003382        0.25755207        0.00000089        0.00000448        0.00000037        0.00000783        0.00176064
      16          0.112798        2.000000        0.00003516        0.00022304        0.60504591        0.00030918        0.00001753        0.00098232        0.00000413        0.00128675        0.00001501
      17          0.114771        2.000000        0.00005415        0.00112572        0.60272903        0.00102956        0.00000362        0.00148729        0.00002572        0.00097345        0.00000896
      18          0.174078        2.000000        0.01577013        0.06276605        0.00181041        0.74032765        0.00292372        0.00000153        0.00011968        0.00001380        0.00168729
      19          0.177834        2.000000        0.01476611        0.74418369        0.00105891        0.06474930        0.00377716        0.00000769        0.00012230        0.00000119        0.00148227
      20          0.198914        2.000000        0.00002376        0.00050887        0.90676549        0.00033719        0.00003439        0.00040475        0.00002673        0.00042895        0.00000036
      21          0.243119        2.000000        0.00004683        0.00109046        0.91010486        0.00046974        0.00010793        0.00002767        0.00019967        0.00003161        0.00000351
      22          0.252730        2.000000        0.00053037        0.45580134        0.00163203        0.41611640        0.00008960        0.00008194        0.00021402        0.00004417        0.00169765
      23          0.258570        2.000000        0.00170911        0.44762195        0.00014110        0.48227109        0.00024320        0.00002561        0.00035502        0.00003534        0.00002027
      24          0.264284        2.000000        0.00015149        0.42409599        0.00063502        0.44148477        0.00003136        0.00000354        0.00012413        0.00002282        0.00235454
      25          0.323861        0.000000        0.00069158        0.00615433        0.00699216        0.00603387        0.01555731        0.00002465        0.02991714        0.00000881        0.00001159
      26          0.334621        0.000000        0.00004062        0.00171774        0.00329117        0.00279327        0.00016592        0.01087141        0.00056841        0.01381444        0.00019810
      27          0.337223        0.000000        0.00002984        0.00852153        0.00213601        0.00832819        0.00005792        0.01228747        0.00020469        0.01201847        0.00144963
      28          0.341989        0.000000        0.00002018        0.09051686        0.00026562        0.09258167        0.00000188        0.00285971        0.00003175        0.00062077        0.01406318
      29          0.348033        0.000000        0.00470493        0.03616854        0.00210279        0.03552615        0.01585621        0.00001886        0.03978397        0.00040801        0.00001018
      30          0.391614        0.000000        0.07415174        0.03310413        0.00032158        0.02379835        0.01477905        0.00001133        0.00853033        0.00001424        0.00000684
      31          0.413012        0.000000        0.00021036        0.08973251        0.00000377        0.10077821        0.00003487        0.00001577        0.00000463        0.00003661        0.00002753
      32          0.506409        0.000000        0.12946470        0.13836454        0.05827882        0.13581294        0.00075124        0.00189439        0.00127317        0.00177326        0.00006902
      33          0.509072        0.000000        0.03750500        0.02035319        0.31089987        0.02048001        0.00031463        0.01031049        0.00042719        0.00994321        0.00008175
      34          0.517847        0.000000        0.01970085        0.00166135        0.35260086        0.00159209        0.00020090        0.01254017        0.00010623        0.01193559        0.00001516
      35          0.555456        0.000000        0.44722998        0.02579710        0.00532280        0.02676818        0.01041218        0.00028651        0.00012195        0.00023404        0.00001569
      36          0.714564        0.000000        0.30548027        0.06589165        0.00021890        0.03405078        0.00004050        0.00001201        0.04711030        0.00000340        0.07638512
      37          0.717917        0.000000        0.30897672        0.02406236        0.00021148        0.06771238        0.00010375        0.00002736        0.05075083        0.00002663        0.07450069
      38          0.776762        0.000000        0.00105348        0.28021906        0.00000276        0.27314218        0.00001742        0.00002585        0.00037027        0.00003725        0.01644526
      39          0.859447        0.000000        0.02060199        0.00688772        0.00040933        0.01040499        0.01039158        0.00003740        0.21918894        0.00003081        0.00001063
      40          0.946055        0.000000        0.04926010        0.25208822        0.00044871        0.25229139        0.06330161        0.00133393        0.00262241        0.00126147        0.00001269
      41          0.963127        0.000000        0.05473317        0.20056082        0.00002708        0.14461545        0.12913336        0.00018933        0.00625126        0.00017549        0.00021806
      42          0.973296        0.000000        0.01272518        0.35789829        0.00015778        0.08849570        0.05384838        0.00043772        0.04365663        0.00049051        0.00113963
      43          0.980980        0.000000        0.00532405        0.09545459        0.00008221        0.40186715        0.03193089        0.00032265        0.04959408        0.00057085        0.00165266
      44          1.110107        0.000000        0.00062475        0.00213004        0.01223889        0.00385174        0.00127825        0.21730775        0.00022902        0.20982005        0.00000055
      45          1.198020        0.000000        0.00048432        0.00035493        0.76269667        0.00016710        0.00006791        0.00162700        0.00099525        0.00146854        0.00025833
      46          1.251033        0.000000        0.00000575        0.00976564        0.00022220        0.00840691        0.00001862        0.00118560        0.00026794        0.00051099        0.22303670
      47          1.292621        0.000000        0.00013075        0.00004906        0.19046902        0.00030598        0.00003379        0.01350355        0.00020739        0.29349282        0.00026738
      48          1.301629        0.000000        0.00007136        0.00004894        0.19296218        0.00003925        0.00003156        0.29123215        0.00055277        0.01556182        0.00047090
      49          1.463856        0.000000        0.31796452        0.03060912        0.00285521        0.03170542        0.11436018        0.00003019        0.04167786        0.00070048        0.00305244
      50          1.480652        0.000000        0.00833473        0.20938724        0.00087078        0.15421394        0.00252303        0.00085706        0.20002632        0.00127212        0.14098774
      51          1.481893        0.000000        0.00390709        0.14356181        0.00036093        0.19173859        0.00132465        0.00083931        0.22953061        0.00021091        0.12278977
      52          1.501952        0.000000        0.00348203        0.01988705        0.00282441        0.02805219        0.00093274        0.00194694        0.46694327        0.00142169        0.01317060
      53          1.624288        0.000000        0.00002027        0.00067280        0.00346300        0.00091433        0.00006456        0.30878521        0.00073917        0.31411398        0.00059436
      54          1.649977        0.000000        0.00077196        0.00091763        0.07148403        0.00263985        0.00111680        0.27486211        0.00243199        0.25200512        0.00376026
      55          1.705340        0.000000        0.00201008        0.00513706        0.59457316        0.01107294        0.00485768        0.09408904        0.00089383        0.03044698        0.00227592
      56          1.717370        0.000000        0.00241962        0.02190035        0.58229636        0.01014712        0.00203078        0.03019533        0.00129015        0.09414723        0.00848315
      57          1.733979        0.000000        0.00532050        0.44110167        0.02557936        0.40385436        0.00482793        0.00604980        0.00087405        0.00307546        0.03447620
      58          1.740413        0.000000        0.03014437        0.21038226        0.02383616        0.25616856        0.03655030        0.00401701        0.00221549        0.00615985        0.09303894
      59          1.753030        0.000000        0.03200458        0.18577145        0.01562540        0.22575398        0.02767833        0.00913226        0.00494246        0.00248100        0.11050865
      60          1.807062        0.000000        0.00020701        0.00813589        0.68397158        0.00069326        0.00196179        0.02630969        0.00034344        0.01916569        0.00052927
      61          1.810485        0.000000        0.00031889        0.00689683        0.08645527        0.00630403        0.00047561        0.13904082        0.00030734        0.17172435        0.00198856
      62          1.873938        0.000000        0.01172229        0.01479266        0.00431174        0.01756409        0.26635558        0.00059979        0.07823603        0.00080218        0.03545686
      63          1.881483        0.000000        0.01265016        0.01654817        0.00165185        0.00626267        0.23399766        0.00048165        0.08170016        0.00012119        0.04297431
      64          1.929055        0.000000        0.00490881        0.36765216        0.00116598        0.35042661        0.12960313        0.00069153        0.01817377        0.00329437        0.00015895
      65          2.056373        0.000000        0.01588623        0.05275580        0.08275345        0.06456369        0.05055666        0.02642571        0.00378410        0.04858817        0.01424131
      66          2.068431        0.000000        0.02706346        0.13976141        0.03391190        0.10527563        0.11892693        0.02635514        0.00438745        0.02174705        0.02602036
      67          2.088791        0.000000        0.00979047        0.01262312        0.02492177        0.00583736        0.05351580        0.64923737        0.00051818        0.02333404        0.00066977
      68          2.100097        0.000000        0.00945423        0.03905315        0.01922896        0.06671452        0.06447390        0.01528720        0.00023625        0.49152398        0.01099015
      69          2.110600        0.000000        0.03310191        0.09846171        0.02740226        0.08697333        0.13924697        0.01210966        0.00273561        0.15673231        0.01923151
      70          2.119781        0.000000        0.10376787        0.01464336        0.00729687        0.06247388        0.56675833        0.05777214        0.00297356        0.03305256        0.01257347
      71          2.144998        0.000000        0.00522919        0.18792598        0.00040805        0.14549343        0.01588376        0.00156068        0.00098474        0.00168198        0.57274029
      72          2.257896        0.000000        0.00098904        0.00281974        0.00198409        0.00357246        0.00104983        0.00966547        0.00784444        0.00777902        0.00014865
      73          2.275766        0.000000        0.00490883        0.02687147        0.00033928        0.02644840        0.00010700        0.00119988        0.06829612        0.00131961        0.00615495
      74          2.282294        0.000000        0.00525682        0.02065693        0.00101849        0.02608842        0.00003899        0.00209521        0.04361778        0.00077181        0.00415709
