       6
 i =        2, time =        2.000, E =      -180.7286746574
 Ti         2.3277239621        2.3270268308        1.4827191354
 Ti        -0.0045136893        0.0034531193       -0.0029148222
  O         0.8934628215        3.7476973908        1.4750098463
  O         3.7605882664        0.8964838846        1.4916956438
  O         1.4326334362        1.4203964206        0.0029846005
  O         3.2301372422        3.2304948944        0.0136754201
