# Projected DOS for atomic kind C at iteration step i = 0, E(Fermi) =    -0.420791 a.u.
#     MO Eigenvalue [a.u.]      Occupation                 s                py                pz                px
       1         -0.859644        2.000000        0.16020724        0.10471238        0.00000399        0.10170635
       2         -0.858977        2.000000        0.16099480        0.10325575        0.00000306        0.10202050
       3         -0.858166        2.000000        0.16078708        0.10416271        0.00000156        0.10178028
       4         -0.854978        2.000000        0.16143732        0.10304947        0.00000132        0.10003191
       5         -0.823974        2.000000        0.18043822        0.08154676        0.00000292        0.08424163
       6         -0.822828        2.000000        0.18426200        0.08220998        0.00000160        0.07941990
       7         -0.822618        2.000000        0.18072989        0.08306372        0.00000123        0.08183144
       8         -0.818917        2.000000        0.19026200        0.07623405        0.00000107        0.07785732
       9         -0.803813        2.000000        0.24681509        0.06883972        0.00000506        0.09091319
      10         -0.803032        2.000000        0.24469958        0.10614932        0.00000313        0.05245299
      11         -0.802484        2.000000        0.21515300        0.06184688        0.00000503        0.13257143
      12         -0.802174        2.000000        0.24284832        0.05488041        0.00000307        0.10857327
      13         -0.801373        2.000000        0.23004951        0.13514878        0.00000234        0.04757880
      14         -0.801200        2.000000        0.22161358        0.10714871        0.00000336        0.07384163
      15         -0.800384        2.000000        0.20113766        0.10386548        0.00000261        0.10174409
      16         -0.800266        2.000000        0.20549583        0.08450748        0.00000186        0.11553881
      17         -0.795722        2.000000        0.19846303        0.09866832        0.00000375        0.08236418
      18         -0.795489        2.000000        0.19051442        0.10980554        0.00000461        0.07814882
      19         -0.795018        2.000000        0.15543386        0.12965683        0.00000261        0.09580413
      20         -0.794582        2.000000        0.13996586        0.09695829        0.00000281        0.14441933
      21         -0.794341        2.000000        0.14382332        0.12949370        0.00000490        0.10734406
      22         -0.793236        2.000000        0.16448143        0.11321687        0.00000392        0.09449056
      23         -0.791469        2.000000        0.11278433        0.10707846        0.00000231        0.16949853
      24         -0.791039        2.000000        0.10428793        0.10004441        0.00000415        0.18627816
      25         -0.790730        2.000000        0.11137979        0.18385373        0.00000272        0.09443714
      26         -0.789222        2.000000        0.10470731        0.13566780        0.00000236        0.14521403
      27         -0.788522        2.000000        0.10201186        0.13256292        0.00000226        0.15192436
      28         -0.788108        2.000000        0.08248666        0.11911607        0.00000302        0.18621148
      29         -0.785139        2.000000        0.04130819        0.18274331        0.00000191        0.15232707
      30         -0.784263        2.000000        0.02838628        0.18808044        0.00000225        0.15933232
      31         -0.783934        2.000000        0.02217395        0.18360358        0.00000134        0.16927294
      32         -0.778858        2.000000        0.00109732        0.18470506        0.00000164        0.18505017
      33         -0.697081        2.000000        0.37875164        0.06166050        0.00000280        0.05019423
      34         -0.696401        2.000000        0.37792372        0.06331651        0.00000261        0.04893910
      35         -0.694993        2.000000        0.39800003        0.05416805        0.00000219        0.04607765
      36         -0.690206        2.000000        0.37185491        0.02553397        0.00000265        0.09431043
      37         -0.689149        2.000000        0.39526754        0.04665414        0.00000265        0.05815125
      38         -0.688897        2.000000        0.40942741        0.06278374        0.00000239        0.03297973
      39         -0.681887        2.000000        0.34797137        0.07976136        0.00000331        0.05414929
      40         -0.681271        2.000000        0.35070542        0.05290410        0.00000192        0.07997106
      41         -0.675142        2.000000        0.31183497        0.05265715        0.00000617        0.09303219
      42         -0.673974        2.000000        0.28659123        0.09505424        0.00000324        0.06618178
      43         -0.673751        2.000000        0.28836230        0.09067478        0.00000346        0.06943083
      44         -0.661782        2.000000        0.33533507        0.08080566        0.00000450        0.08016875
      45         -0.656167        2.000000        0.15736693        0.17467970        0.00000382        0.15283111
      46         -0.655984        2.000000        0.15523940        0.15544487        0.00000567        0.17461094
      47         -0.649462        2.000000        0.07336259        0.16399629        0.00001428        0.18903099
      48         -0.648746        2.000000        0.06874077        0.17124814        0.00000681        0.18580059
      49         -0.645986        2.000000        0.09645021        0.09507196        0.00000643        0.23519694
      50         -0.643075        2.000000        0.04888428        0.25286724        0.00001806        0.15089082
      51         -0.638095        2.000000        0.08814189        0.27749452        0.00001738        0.07717750
      52         -0.637896        2.000000        0.08974434        0.09029605        0.00001874        0.26155260
      53         -0.636046        2.000000        0.05980748        0.20215766        0.00000870        0.18735984
      54         -0.635907        2.000000        0.05911841        0.23431676        0.00000741        0.15641390
      55         -0.625276        2.000000        0.13431616        0.21690778        0.00002013        0.13526156
      56         -0.624705        2.000000        0.13636572        0.21817702        0.00002042        0.13260544
      57         -0.621249        2.000000        0.09424618        0.20801409        0.00004344        0.18109761
      58         -0.618714        2.000000        0.00002333        0.00001979        0.47402732        0.00003533
      59         -0.614904        2.000000        0.00001222        0.00001854        0.46570042        0.00002212
      60         -0.614194        2.000000        0.00002456        0.00003432        0.46588428        0.00003747
      61         -0.612129        2.000000        0.00000577        0.00001161        0.46844863        0.00001099
      62         -0.603961        2.000000        0.09316096        0.08888324        0.00002698        0.28642260
      63         -0.603626        2.000000        0.09228446        0.09023792        0.00004200        0.28553408
      64         -0.591731        2.000000        0.13535613        0.25121202        0.00002242        0.08493891
      65         -0.589558        2.000000        0.10688859        0.04361989        0.00004378        0.30579182
      66         -0.588344        2.000000        0.10041514        0.10046956        0.00025569        0.25300981
      67         -0.588060        2.000000        0.06799559        0.21985815        0.00012769        0.16373616
      68         -0.587706        2.000000        0.07454907        0.28867136        0.00004679        0.07986664
      69         -0.582082        2.000000        0.00006686        0.00006356        0.47438430        0.00009228
      70         -0.581179        2.000000        0.00001863        0.00001609        0.47415709        0.00003734
      71         -0.580143        2.000000        0.00004257        0.00004906        0.47676690        0.00009749
      72         -0.570851        2.000000        0.00369340        0.23103075        0.00008654        0.22540901
      73         -0.568507        2.000000        0.04227499        0.21292391        0.00004621        0.18820551
      74         -0.568283        2.000000        0.04283279        0.21103013        0.00007351        0.18852419
      75         -0.558779        2.000000        0.01883593        0.27595055        0.05339743        0.06633376
      76         -0.558757        2.000000        0.00289845        0.04461375        0.33202406        0.01056860
      77         -0.558067        2.000000        0.02205953        0.32252857        0.00074453        0.07280415
      78         -0.555517        2.000000        0.00004032        0.00025118        0.50521715        0.00008976
      79         -0.554942        2.000000        0.00002691        0.00024231        0.50577907        0.00010300
      80         -0.553981        2.000000        0.00003046        0.00026259        0.50658613        0.00080237
      81         -0.552579        2.000000        0.00001230        0.00003254        0.51184351        0.00011735
      82         -0.552330        2.000000        0.00001232        0.00003704        0.51255000        0.00015307
      83         -0.551135        2.000000        0.00951023        0.00502100        0.00118380        0.40277805
      84         -0.546079        2.000000        0.01472768        0.13126574        0.00012647        0.26588948
      85         -0.545690        2.000000        0.01521075        0.26342325        0.00021419        0.13261005
      86         -0.530046        2.000000        0.00004455        0.00001194        0.43106690        0.00002332
      87         -0.527932        2.000000        0.00000997        0.00001341        0.44039196        0.00001982
      88         -0.527545        2.000000        0.00009429        0.00003790        0.44230083        0.00002743
      89         -0.524088        2.000000        0.06089129        0.01326010        0.00057521        0.01368418
      90         -0.519120        2.000000        0.02258152        0.08109952        0.00008366        0.00735752
      91         -0.517583        2.000000        0.01806856        0.03315947        0.00004074        0.06490620
      92         -0.517318        2.000000        0.01753017        0.03351465        0.00036760        0.06536451
      93         -0.512683        2.000000        0.00002209        0.00001320        0.38497573        0.00002360
      94         -0.512411        2.000000        0.00001789        0.00002006        0.38302021        0.00006329
      95         -0.510323        2.000000        0.00001301        0.00001473        0.38359553        0.00001274
      96         -0.502035        2.000000        0.00005267        0.00002506        0.45925428        0.00013807
      97         -0.501850        2.000000        0.00003598        0.00011077        0.45994303        0.00006888
      98         -0.498916        2.000000        0.00930886        0.04534612        0.00323013        0.04760413
      99         -0.498572        2.000000        0.00927173        0.04557237        0.01821549        0.04303787
     100         -0.498062        2.000000        0.00017643        0.00120719        0.46695286        0.00040423
     101         -0.497720        2.000000        0.00028799        0.00054646        0.46664377        0.00167307
     102         -0.496855        2.000000        0.00001495        0.00001690        0.47777180        0.00003933
     103         -0.492413        2.000000        0.04628088        0.01433878        0.00017028        0.03313692
     104         -0.491973        2.000000        0.04579846        0.01455403        0.00045692        0.03380886
     105         -0.484317        2.000000        0.05239083        0.03848036        0.00004378        0.00594473
     106         -0.482358        2.000000        0.00598429        0.00989820        0.00008445        0.09615570
     107         -0.476695        2.000000        0.01387284        0.07024959        0.00004422        0.02561313
     108         -0.476156        2.000000        0.01384351        0.07092412        0.00007926        0.02535290
     109         -0.461024        2.000000        0.00000490        0.00001098        0.02251898        0.00000954
     110         -0.451297        2.000000        0.00707716        0.03876812        0.00001586        0.02841636
     111         -0.451117        2.000000        0.00611977        0.03099687        0.00001426        0.04062657
     112         -0.450319        2.000000        0.00656442        0.03891180        0.00002300        0.02899000
     113         -0.446811        2.000000        0.00001741        0.00002914        0.03208917        0.00002972
     114         -0.446253        2.000000        0.00002014        0.00002369        0.03203364        0.00002571
     115         -0.444933        2.000000        0.00757709        0.01128980        0.01918032        0.00606454
     116         -0.444750        2.000000        0.01261619        0.01864542        0.01174535        0.00968186
     117         -0.443415        2.000000        0.02008129        0.01643180        0.00008006        0.03711703
     118         -0.443102        2.000000        0.01940490        0.01692091        0.00002553        0.03694114
     119         -0.431275        2.000000        0.00006735        0.03285728        0.00001325        0.03307883
     120         -0.426612        2.000000        0.00010803        0.00032928        0.00085619        0.00009434
     121         -0.425998        2.000000        0.00002100        0.00003091        0.00069411        0.00004523
     122         -0.425295        2.000000        0.00747390        0.02346474        0.00031928        0.00564716
     123         -0.425155        2.000000        0.00673533        0.01166369        0.00034777        0.01471569
     124         -0.424968        2.000000        0.01221212        0.01446619        0.00006606        0.03300689
     125         -0.422519        2.000000        0.01479509        0.02366739        0.00000751        0.01588139
     126         -0.422269        2.000000        0.01440612        0.02520194        0.00001369        0.01579521
     127         -0.421145        2.000000        0.01385194        0.01576389        0.00001154        0.02531853
     128         -0.420791        2.000000        0.00030476        0.00035029        0.00014680        0.00049930
     129         -0.349114        0.000000        0.00001668        0.00000278        0.67456346        0.00000901
     130         -0.348555        0.000000        0.00001195        0.00000431        0.67458600        0.00000841
     131         -0.347852        0.000000        0.00001962        0.00000408        0.67480075        0.00000834
     132         -0.321947        0.000000        0.00002330        0.00000469        0.53100285        0.00000584
     133         -0.320514        0.000000        0.00001598        0.00000435        0.53746594        0.00000576
     134         -0.319803        0.000000        0.00001428        0.00000518        0.52778436        0.00000424
     135         -0.319185        0.000000        0.00000874        0.00000553        0.53074239        0.00000416
     136         -0.318010        0.000000        0.00001203        0.00000280        0.51965422        0.00000351
     137         -0.303689        0.000000        0.00001849        0.00000264        0.62172342        0.00000527
     138         -0.299732        0.000000        0.00002716        0.00000636        0.53414853        0.00000507
     139         -0.297083        0.000000        0.00001127        0.00000585        0.52869773        0.00000205
     140         -0.296763        0.000000        0.00001329        0.00000302        0.52986284        0.00000331
     141         -0.237892        0.000000        0.00002107        0.00000521        0.49165527        0.00000251
     142         -0.237124        0.000000        0.00001460        0.00000488        0.49364780        0.00000270
     143         -0.236386        0.000000        0.00002014        0.00000351        0.48963270        0.00000416
     144         -0.234651        0.000000        0.00000877        0.00000609        0.48900062        0.00000241
     145         -0.234562        0.000000        0.00001013        0.00000170        0.48941424        0.00000441
     146         -0.212443        0.000000        0.00001417        0.00000312        0.50573375        0.00000179
     147         -0.211704        0.000000        0.00001414        0.00000175        0.50419921        0.00000238
     148         -0.210571        0.000000        0.00001043        0.00000295        0.50440162        0.00000295
     149         -0.167491        0.000000        0.00002385        0.00000237        0.49374638        0.00000232
     150         -0.166284        0.000000        0.00002073        0.00000164        0.49348125        0.00000189
     151         -0.165773        0.000000        0.00000924        0.00000167        0.49368795        0.00000206
     152         -0.155968        0.000000        0.00001542        0.00000089        0.49601641        0.00000132
     153         -0.039866        0.000000        0.38675741        0.13510416        0.00001719        0.12791627
     154         -0.027191        0.000000        0.33374736        0.13511895        0.00001657        0.13110071
     155         -0.022061        0.000000        0.33242605        0.15336174        0.00001852        0.09422071
     156         -0.018766        0.000000        0.34494575        0.14453925        0.00000667        0.10740781
     157         -0.008226        0.000000        0.27686725        0.17806498        0.00001047        0.12027024
     158         -0.005669        0.000000        0.29081039        0.17076522        0.00000897        0.11171430
     159         -0.004110        0.000000        0.26584557        0.04037207        0.00001600        0.25412731
     160         -0.000031        0.000000        0.30017888        0.07364497        0.00001620        0.19850289
     161          0.003046        0.000000        0.30167727        0.23154691        0.00000870        0.03796224
     162          0.012027        0.000000        0.26131760        0.17149676        0.00001043        0.10535292
     163          0.015373        0.000000        0.26091909        0.03499379        0.00001261        0.23884197
     164          0.020747        0.000000        0.26131920        0.17045130        0.00001448        0.10184612
     165          0.067298        0.000000        0.42925411        0.06550708        0.00001126        0.08804492
     166          0.074535        0.000000        0.42559428        0.06420230        0.00002759        0.08676806
     167          0.076283        0.000000        0.41095723        0.06439409        0.00002325        0.09584841
     168          0.079032        0.000000        0.42943211        0.06020648        0.00003123        0.08330705
     169          0.080783        0.000000        0.33624802        0.02162028        0.00001038        0.18051499
     170          0.084165        0.000000        0.33773467        0.03826807        0.00003051        0.15860430
     171          0.088336        0.000000        0.34657307        0.02607892        0.00001132        0.16668128
     172          0.088878        0.000000        0.34487155        0.06339635        0.00004322        0.12906055
     173          0.093920        0.000000        0.34156114        0.14496363        0.00001997        0.04733320
     174          0.095910        0.000000        0.35195805        0.14904058        0.00002413        0.03052680
     175          0.098144        0.000000        0.33322151        0.17424967        0.00000786        0.02402201
     176          0.101297        0.000000        0.33020879        0.17676993        0.00001210        0.02422147
     177          0.179204        0.000000        0.23185991        0.21827555        0.00000978        0.07869417
     178          0.179512        0.000000        0.20703826        0.16213119        0.00000656        0.16774125
