# Projected DOS for atomic kind N at iteration step i = 0, E(Fermi) =    -0.417214 a.u.
#     MO Eigenvalue [a.u.]      Occupation                 s                py                pz                px
       1         -0.860339        2.000000        0.62188035        0.00608009        0.00000113        0.00603719
       2         -0.857948        2.000000        0.62181835        0.00650496        0.00000146        0.00671801
       3         -0.855398        2.000000        0.62078048        0.00651334        0.00000125        0.00634473
       4         -0.843838        2.000000        0.62621839        0.00735360        0.00000231        0.00741018
       5         -0.831875        2.000000        0.63760195        0.00615947        0.00000170        0.00590872
       6         -0.827718        2.000000        0.63825721        0.00624169        0.00000583        0.00715790
       7         -0.827387        2.000000        0.63867184        0.00607487        0.00000122        0.00640895
       8         -0.814221        2.000000        0.64017318        0.00778933        0.00000102        0.00776498
       9         -0.807185        2.000000        0.53901936        0.02083841        0.00001012        0.03168184
      10         -0.806074        2.000000        0.54199813        0.02320179        0.00000625        0.02706006
      11         -0.805034        2.000000        0.54736863        0.02996054        0.00000356        0.02000033
      12         -0.802094        2.000000        0.54786590        0.02454184        0.00000943        0.02582074
      13         -0.801417        2.000000        0.54228148        0.02960064        0.00000777        0.02271299
      14         -0.800354        2.000000        0.55856045        0.03034530        0.00000836        0.01225955
      15         -0.799757        2.000000        0.54875734        0.01963643        0.00000593        0.02766374
      16         -0.798615        2.000000        0.55439213        0.01662226        0.00001188        0.02894192
      17         -0.797035        2.000000        0.58103847        0.01332725        0.00000657        0.01659649
      18         -0.796613        2.000000        0.59445357        0.01094865        0.00000453        0.01231309
      19         -0.796096        2.000000        0.58817749        0.01054136        0.00002029        0.01297253
      20         -0.795392        2.000000        0.59776149        0.00974081        0.00001297        0.00999657
      21         -0.794339        2.000000        0.59609247        0.01056992        0.00000775        0.00757534
      22         -0.793319        2.000000        0.59742905        0.00918299        0.00000805        0.01009817
      23         -0.790670        2.000000        0.60266698        0.00991017        0.00000693        0.00805554
      24         -0.789839        2.000000        0.59696937        0.01263457        0.00001078        0.00500708
      25         -0.789500        2.000000        0.59597957        0.00864532        0.00000906        0.01079546
      26         -0.788389        2.000000        0.59845795        0.01030762        0.00000777        0.01113125
      27         -0.787291        2.000000        0.60060104        0.00762037        0.00000774        0.00866826
      28         -0.786344        2.000000        0.59048867        0.01258233        0.00000514        0.00932299
      29         -0.784224        2.000000        0.59920977        0.00989489        0.00000514        0.00938972
      30         -0.783165        2.000000        0.61067774        0.00676374        0.00001027        0.00857385
      31         -0.781576        2.000000        0.60985302        0.00637528        0.00000342        0.00934065
      32         -0.776887        2.000000        0.61867178        0.00440819        0.00000526        0.00507451
      33         -0.699591        2.000000        0.01322454        0.29176358        0.00003058        0.20193297
      34         -0.697701        2.000000        0.01332826        0.30972544        0.00003732        0.18270903
      35         -0.695500        2.000000        0.00952315        0.18330966        0.00002320        0.30690543
      36         -0.691432        2.000000        0.01772961        0.27213236        0.00003759        0.21167964
      37         -0.688617        2.000000        0.01608176        0.20054916        0.00003956        0.28103944
      38         -0.688063        2.000000        0.02611512        0.17733560        0.00002956        0.30532359
      39         -0.682546        2.000000        0.04722503        0.33974169        0.00006317        0.13428133
      40         -0.679362        2.000000        0.04032716        0.15029079        0.00007244        0.32432210
      41         -0.674819        2.000000        0.05575631        0.26792422        0.00013381        0.21376040
      42         -0.671609        2.000000        0.06365434        0.26839742        0.00006115        0.21164929
      43         -0.669934        2.000000        0.06162244        0.25089391        0.00004076        0.23060522
      44         -0.662228        2.000000        0.02730723        0.24701691        0.00005823        0.23198191
      45         -0.658642        2.000000        0.02211866        0.31173230        0.00011123        0.18753780
      46         -0.657341        2.000000        0.01710177        0.20907923        0.00008591        0.29110961
      47         -0.650279        2.000000        0.05702501        0.23763882        0.00043976        0.27481847
      48         -0.647173        2.000000        0.05615855        0.26797065        0.00005444        0.24708791
      49         -0.643127        2.000000        0.04958173        0.16623365        0.00020568        0.34732907
      50         -0.642214        2.000000        0.04164955        0.19040787        0.00027598        0.32488275
      51         -0.638515        2.000000        0.04035756        0.27032154        0.00029612        0.24379447
      52         -0.637951        2.000000        0.04178190        0.24784643        0.00029755        0.26554499
      53         -0.633537        2.000000        0.03878092        0.26439774        0.00013259        0.25084587
      54         -0.632899        2.000000        0.04421504        0.20176446        0.00006159        0.31531765
      55         -0.627104        2.000000        0.01356538        0.42188950        0.00028317        0.08101998
      56         -0.625231        2.000000        0.01430389        0.41914541        0.00020909        0.08095144
      57         -0.621521        2.000000        0.01758085        0.26914736        0.00158449        0.23399252
      58         -0.619244        2.000000        0.00010541        0.00108491        0.52265600        0.00112640
      59         -0.615446        2.000000        0.00008811        0.00068136        0.53105295        0.00062533
      60         -0.612619        2.000000        0.00009275        0.00063750        0.53062732        0.00070410
      61         -0.605639        2.000000        0.00088788        0.00454733        0.50241778        0.01553356
      62         -0.605506        2.000000        0.01983172        0.10802352        0.02089785        0.38110885
      63         -0.604123        2.000000        0.02025389        0.11271843        0.00091118        0.39763668
      64         -0.593385        2.000000        0.02029893        0.41529286        0.00040825        0.09422316
      65         -0.592074        2.000000        0.02144991        0.02866799        0.00082649        0.49012767
      66         -0.590243        2.000000        0.02534644        0.30121382        0.00135293        0.23048185
      67         -0.588205        2.000000        0.01597566        0.40121571        0.00165425        0.12493626
      68         -0.587578        2.000000        0.01936603        0.03779837        0.05174396        0.43266023
      69         -0.586001        2.000000        0.00241258        0.00423200        0.47923181        0.04558484
      70         -0.583243        2.000000        0.00009954        0.00025972        0.52981229        0.00147776
      71         -0.579990        2.000000        0.00015205        0.00093267        0.52234658        0.00220398
      72         -0.573400        2.000000        0.00648255        0.32745600        0.00136158        0.20899711
      73         -0.569933        2.000000        0.01764737        0.32439252        0.00085104        0.21619443
      74         -0.568418        2.000000        0.00936768        0.27729150        0.00088927        0.26029547
      75         -0.561085        2.000000        0.01371338        0.42927161        0.00454940        0.12682228
      76         -0.559165        2.000000        0.01308655        0.31897757        0.13605102        0.11362900
      77         -0.558947        2.000000        0.00406382        0.09145632        0.47101501        0.03268166
      78         -0.557391        2.000000        0.00037632        0.00501995        0.49430991        0.00259312
      79         -0.556415        2.000000        0.00013405        0.00348009        0.48975587        0.00132490
      80         -0.553713        2.000000        0.00257176        0.01334638        0.40249854        0.09211493
      81         -0.552728        2.000000        0.01126287        0.04482473        0.09514597        0.41227763
      82         -0.551237        2.000000        0.00027347        0.00148643        0.48209691        0.00764455
      83         -0.551054        2.000000        0.00008053        0.00054127        0.49109652        0.00053872
      84         -0.547223        2.000000        0.01492099        0.19693528        0.00217443        0.37189860
      85         -0.545210        2.000000        0.01622057        0.34290922        0.00297944        0.22570211
      86         -0.531315        2.000000        0.00048381        0.00113956        0.56691437        0.00092102
      87         -0.528297        2.000000        0.00029922        0.00075384        0.55427793        0.00089553
      88         -0.527272        2.000000        0.00207101        0.00531373        0.54000928        0.00412557
      89         -0.523125        2.000000        0.14929050        0.38836617        0.00790920        0.36055417
      90         -0.518426        2.000000        0.13030828        0.27578295        0.00298440        0.47909558
      91         -0.516814        2.000000        0.12484814        0.45405263        0.00113342        0.30336485
      92         -0.516201        2.000000        0.12354887        0.42978392        0.01901785        0.30225231
      93         -0.513455        2.000000        0.00154981        0.00465940        0.60606622        0.00427204
      94         -0.512469        2.000000        0.00274473        0.01044530        0.60927896        0.00736893
      95         -0.506732        2.000000        0.00047842        0.00103810        0.62312190        0.00101870
      96         -0.502887        2.000000        0.00160038        0.00445758        0.53494659        0.00319347
      97         -0.501857        2.000000        0.00353453        0.00862072        0.52779268        0.01077962
      98         -0.498887        2.000000        0.00757100        0.01932024        0.49337104        0.02644509
      99         -0.498545        2.000000        0.11944395        0.34820933        0.02562539        0.38705257
     100         -0.498081        2.000000        0.01467921        0.04023915        0.46664114        0.04472595
     101         -0.496860        2.000000        0.10617959        0.35198715        0.07461347        0.31397725
     102         -0.494669        2.000000        0.00084630        0.00218940        0.52051980        0.00221130
     103         -0.491614        2.000000        0.13455988        0.34920560        0.00281597        0.41772206
     104         -0.490119        2.000000        0.13430583        0.34957135        0.00494622        0.41309713
     105         -0.484299        2.000000        0.13560901        0.42910388        0.00142665        0.33647787
     106         -0.480770        2.000000        0.11374305        0.56459134        0.00141858        0.21016973
     107         -0.475622        2.000000        0.11441310        0.28199309        0.00086413        0.49656704
     108         -0.474089        2.000000        0.11895941        0.25080791        0.00134851        0.52064155
     109         -0.461353        2.000000        0.00046188        0.00150019        0.97061345        0.00148162
     110         -0.451999        2.000000        0.07930281        0.47080834        0.00998039        0.36942495
     111         -0.450833        2.000000        0.09821822        0.23827167        0.00553167        0.57930128
     112         -0.449086        2.000000        0.00405847        0.02604981        0.91459509        0.01665881
     113         -0.447900        2.000000        0.06520484        0.36283931        0.16937798        0.33574668
     114         -0.447621        2.000000        0.01059312        0.06167305        0.83011896        0.05805322
     115         -0.443260        2.000000        0.06406212        0.45904362        0.16546119        0.24764616
     116         -0.442941        2.000000        0.07913003        0.43062627        0.00648794        0.41111510
     117         -0.442219        2.000000        0.01276474        0.09343437        0.80058950        0.05531152
     118         -0.441033        2.000000        0.06665920        0.41553813        0.00216969        0.44837206
     119         -0.429691        2.000000        0.08076840        0.44583060        0.01827825        0.39104599
     120         -0.427908        2.000000        0.00296939        0.02667657        0.95076063        0.01456715
     121         -0.426410        2.000000        0.00078861        0.00530685        0.98667961        0.00551472
     122         -0.425147        2.000000        0.05435041        0.59842991        0.03688698        0.25109780
     123         -0.423913        2.000000        0.05273340        0.13050187        0.00555988        0.74757206
     124         -0.423371        2.000000        0.00197278        0.01496284        0.96581995        0.01363536
     125         -0.420402        2.000000        0.04502762        0.41331891        0.17478382        0.32150628
     126         -0.419605        2.000000        0.04523990        0.34523605        0.12928662        0.43179649
     127         -0.419289        2.000000        0.01490934        0.17180949        0.70002957        0.09638178
     128         -0.417214        2.000000        0.04993786        0.53540494        0.01775607        0.34308090
     129         -0.352418        0.000000        0.00002140        0.00022902        0.32838520        0.00021555
     130         -0.350676        0.000000        0.00002666        0.00010286        0.33482797        0.00011200
     131         -0.348311        0.000000        0.00002760        0.00011637        0.33009397        0.00023460
     132         -0.325883        0.000000        0.00002948        0.00010018        0.47131789        0.00018821
     133         -0.320693        0.000000        0.00004344        0.00009816        0.46612158        0.00007214
     134         -0.319075        0.000000        0.00003541        0.00015279        0.47094235        0.00019442
     135         -0.316884        0.000000        0.00003615        0.00010877        0.46579188        0.00009851
     136         -0.316274        0.000000        0.00004144        0.00016479        0.47080840        0.00006922
     137         -0.303811        0.000000        0.00003047        0.00004462        0.38557648        0.00008234
     138         -0.299844        0.000000        0.00006115        0.00009666        0.46578972        0.00009797
     139         -0.294678        0.000000        0.00003103        0.00006321        0.46827473        0.00005117
     140         -0.292357        0.000000        0.00002029        0.00005437        0.46509469        0.00007293
     141         -0.241233        0.000000        0.00003939        0.00008723        0.50899480        0.00005839
     142         -0.237349        0.000000        0.00003221        0.00002222        0.50959394        0.00016102
     143         -0.236905        0.000000        0.00004274        0.00008858        0.50532124        0.00005585
     144         -0.230962        0.000000        0.00001844        0.00002370        0.50775626        0.00005703
     145         -0.230580        0.000000        0.00004830        0.00007257        0.50995377        0.00005520
     146         -0.213036        0.000000        0.00002860        0.00005500        0.49435755        0.00004341
     147         -0.211100        0.000000        0.00002471        0.00004000        0.49539638        0.00006838
     148         -0.207544        0.000000        0.00001447        0.00003925        0.49533300        0.00005875
     149         -0.169328        0.000000        0.00002480        0.00003914        0.50525137        0.00004033
     150         -0.164526        0.000000        0.00002849        0.00002740        0.50652340        0.00002528
     151         -0.162986        0.000000        0.00001751        0.00004112        0.50534538        0.00001932
     152         -0.154125        0.000000        0.00000996        0.00003018        0.50356180        0.00001517
     153         -0.048118        0.000000        0.26586005        0.01549264        0.00010302        0.08062661
     154         -0.034923        0.000000        0.17225450        0.13384450        0.00013645        0.10996168
     155         -0.027133        0.000000        0.07750211        0.27496243        0.00009149        0.09702596
     156         -0.017234        0.000000        0.11769116        0.18889534        0.00010127        0.12098255
     157         -0.008825        0.000000        0.23890905        0.10390462        0.00011499        0.05217201
     158         -0.006762        0.000000        0.16005841        0.13838287        0.00016026        0.12483848
     159         -0.001369        0.000000        0.10619614        0.07873557        0.00009015        0.25943635
     160          0.008378        0.000000        0.14276575        0.11837834        0.00004879        0.16408367
     161          0.014048        0.000000        0.13551981        0.20461395        0.00007184        0.09442985
     162          0.019856        0.000000        0.12206167        0.15127162        0.00004303        0.16847056
     163          0.034552        0.000000        0.14396769        0.11992628        0.00004602        0.16667957
     164          0.035911        0.000000        0.07712732        0.11678535        0.00003861        0.26224825
     165          0.042404        0.000000        0.05432928        0.22524624        0.00004689        0.18737513
     166          0.053149        0.000000        0.10813975        0.11518864        0.00003787        0.20912375
     167          0.058745        0.000000        0.07892632        0.09822014        0.00001741        0.26588028
     168          0.060816        0.000000        0.08746955        0.12918772        0.00004874        0.23319475
     169          0.065563        0.000000        0.07479049        0.11834810        0.00007257        0.25424465
     170          0.069667        0.000000        0.12253056        0.11223017        0.00003388        0.20949279
     171          0.084887        0.000000        0.09725664        0.16981479        0.00006278        0.18417312
     172          0.089697        0.000000        0.12185415        0.12621721        0.00005157        0.18732871
     173          0.101341        0.000000        0.03437710        0.23237837        0.00005974        0.19705457
     174          0.103698        0.000000        0.03292129        0.27511215        0.00006249        0.17040421
     175          0.107867        0.000000        0.02540160        0.33133062        0.00002501        0.10512467
     176          0.121293        0.000000        0.02312905        0.31989371        0.00009928        0.11877867
     177          0.157880        0.000000        0.07163050        0.15154826        0.00002536        0.22993584
     178          0.171042        0.000000        0.02938287        0.21351579        0.00004903        0.21538951
