# Projected DOS for atomic kind N at iteration step i = 0, E(Fermi) =    -0.420166 a.u.
#     MO Eigenvalue [a.u.]      Occupation                 s                py                pz                px
       1         -0.859950        2.000000        0.62165662        0.00601090        0.00000032        0.00600418
       2         -0.858628        2.000000        0.62172491        0.00624283        0.00000034        0.00635705
       3         -0.857076        2.000000        0.62108890        0.00624467        0.00000038        0.00615126
       4         -0.850811        2.000000        0.62436188        0.00666401        0.00000068        0.00669080
       5         -0.826571        2.000000        0.63962409        0.00658665        0.00000049        0.00642667
       6         -0.824280        2.000000        0.63971272        0.00659462        0.00000141        0.00721468
       7         -0.824030        2.000000        0.64036193        0.00653566        0.00000039        0.00663091
       8         -0.816731        2.000000        0.64123356        0.00741886        0.00000023        0.00742788
       9         -0.805029        2.000000        0.53757797        0.02301996        0.00000258        0.03161591
      10         -0.803854        2.000000        0.54034440        0.02942483        0.00000246        0.02298568
      11         -0.803567        2.000000        0.54157824        0.02438209        0.00000106        0.02911245
      12         -0.802064        2.000000        0.54149425        0.02418598        0.00000243        0.02967353
      13         -0.801334        2.000000        0.53328504        0.03477455        0.00000197        0.02257410
      14         -0.800792        2.000000        0.55097466        0.03119181        0.00000219        0.01679228
      15         -0.800042        2.000000        0.54055626        0.02456733        0.00000129        0.02768457
      16         -0.799602        2.000000        0.54374983        0.01960411        0.00000221        0.03210821
      17         -0.796233        2.000000        0.59574886        0.01026003        0.00000166        0.01223494
      18         -0.795985        2.000000        0.60128611        0.00869126        0.00000189        0.01083972
      19         -0.795353        2.000000        0.59668599        0.01089359        0.00000340        0.00887492
      20         -0.794895        2.000000        0.59835972        0.00864361        0.00000338        0.01091263
      21         -0.794286        2.000000        0.59988904        0.01218158        0.00000268        0.00704573
      22         -0.793024        2.000000        0.60418218        0.00660065        0.00000227        0.00924636
      23         -0.791538        2.000000        0.59940803        0.00969460        0.00000132        0.00751926
      24         -0.790652        2.000000        0.59259296        0.01257129        0.00000262        0.00659539
      25         -0.790406        2.000000        0.59389802        0.00741457        0.00000231        0.01050303
      26         -0.789175        2.000000        0.59606751        0.00823795        0.00000201        0.01169507
      27         -0.788003        2.000000        0.59398768        0.01018952        0.00000162        0.00956531
      28         -0.787610        2.000000        0.59586065        0.01367885        0.00000168        0.00392421
      29         -0.785184        2.000000        0.60284054        0.00627835        0.00000241        0.01149267
      30         -0.783999        2.000000        0.61086443        0.00577079        0.00000243        0.00803127
      31         -0.783234        2.000000        0.61116521        0.00557678        0.00000087        0.00860089
      32         -0.778374        2.000000        0.62089888        0.00376794        0.00000173        0.00406548
      33         -0.697816        2.000000        0.01431790        0.26889106        0.00000918        0.22503837
      34         -0.696594        2.000000        0.01492543        0.29394186        0.00000868        0.19955980
      35         -0.694911        2.000000        0.00917889        0.29101436        0.00000893        0.20078063
      36         -0.690562        2.000000        0.02047914        0.20177558        0.00000814        0.28002979
      37         -0.688806        2.000000        0.01983227        0.15148878        0.00000996        0.32978610
      38         -0.688634        2.000000        0.01881673        0.21440174        0.00000690        0.26743125
      39         -0.681937        2.000000        0.04595759        0.35891636        0.00001844        0.11418800
      40         -0.680453        2.000000        0.04181800        0.11973408        0.00001688        0.35359204
      41         -0.675067        2.000000        0.05870159        0.27568990        0.00003637        0.20673579
      42         -0.673011        2.000000        0.06910318        0.26489124        0.00001781        0.21607620
      43         -0.672373        2.000000        0.06679935        0.25740724        0.00001034        0.22439465
      44         -0.661962        2.000000        0.02648518        0.24262025        0.00001445        0.23508588
      45         -0.656848        2.000000        0.01705706        0.31242175        0.00002372        0.18760232
      46         -0.656370        2.000000        0.01485336        0.20328956        0.00002392        0.29758598
      47         -0.649755        2.000000        0.05816306        0.25720845        0.00011964        0.25675922
      48         -0.648117        2.000000        0.05722836        0.28409033        0.00001729        0.23202328
      49         -0.644779        2.000000        0.06209131        0.10224136        0.00001493        0.40911505
      50         -0.642834        2.000000        0.02794711        0.21810127        0.00009519        0.30159745
      51         -0.638236        2.000000        0.04300417        0.27134281        0.00008788        0.24122973
      52         -0.637911        2.000000        0.04504150        0.24000500        0.00010178        0.27201782
      53         -0.635283        2.000000        0.03676922        0.24250352        0.00001859        0.27342252
      54         -0.635159        2.000000        0.03775734        0.24993453        0.00002779        0.26668805
      55         -0.625888        2.000000        0.01400513        0.42984843        0.00009729        0.07039743
      56         -0.624792        2.000000        0.01406769        0.42797214        0.00008156        0.07094212
      57         -0.621415        2.000000        0.01753783        0.25251693        0.00024352        0.24788501
      58         -0.618782        2.000000        0.00002116        0.00019728        0.52526081        0.00020145
      59         -0.615129        2.000000        0.00002470        0.00018854        0.53315797        0.00015790
      60         -0.613616        2.000000        0.00002605        0.00019838        0.53271727        0.00017477
      61         -0.609609        2.000000        0.00000645        0.00003056        0.52798783        0.00003715
      62         -0.604419        2.000000        0.02040017        0.11222093        0.00010809        0.39837364
      63         -0.603689        2.000000        0.02025253        0.11423207        0.00021183        0.39714619
      64         -0.592218        2.000000        0.02268396        0.42347805        0.00011265        0.08243561
      65         -0.590460        2.000000        0.02206911        0.01883292        0.00017242        0.50190014
      66         -0.588775        2.000000        0.02165164        0.31657608        0.00039313        0.21645986
      67         -0.587884        2.000000        0.01690055        0.33645123        0.00040947        0.19298846
      68         -0.587846        2.000000        0.02259256        0.10381448        0.00152126        0.41945249
      69         -0.583386        2.000000        0.00009970        0.00031200        0.52530712        0.00117928
      70         -0.581726        2.000000        0.00001940        0.00007617        0.52729256        0.00024557
      71         -0.579767        2.000000        0.00003989        0.00022622        0.52227212        0.00052828
      72         -0.571579        2.000000        0.00367150        0.30013019        0.00036647        0.23794477
      73         -0.568896        2.000000        0.01621360        0.32963607        0.00020829        0.21149332
      74         -0.568428        2.000000        0.01296607        0.30561828        0.00029362        0.23443922
      75         -0.559544        2.000000        0.01562921        0.42741233        0.00149772        0.13422692
      76         -0.558637        2.000000        0.00015837        0.00400780        0.60517775        0.00162979
      77         -0.558250        2.000000        0.01723231        0.41446937        0.00832785        0.14183619
      78         -0.556272        2.000000        0.00011328        0.00132205        0.49412759        0.00072746
      79         -0.555422        2.000000        0.00004680        0.00117984        0.49149883        0.00049209
      80         -0.553852        2.000000        0.00018712        0.00160729        0.48703787        0.00527217
      81         -0.552167        2.000000        0.00002345        0.00018101        0.48941533        0.00033421
      82         -0.551997        2.000000        0.00034313        0.00078794        0.47696403        0.01217547
      83         -0.551585        2.000000        0.01413551        0.04145495        0.01569241        0.50692087
      84         -0.546455        2.000000        0.01515083        0.21385908        0.00047577        0.35771586
      85         -0.545570        2.000000        0.01580728        0.34376973        0.00082870        0.22791534
      86         -0.530478        2.000000        0.00018521        0.00044040        0.56833318        0.00035058
      87         -0.528045        2.000000        0.00008568        0.00024221        0.55757168        0.00024759
      88         -0.527354        2.000000        0.00072161        0.00175555        0.55067115        0.00155036
      89         -0.523864        2.000000        0.15187190        0.38623116        0.00281282        0.36915339
      90         -0.518943        2.000000        0.13166760        0.26928570        0.00060448        0.48732599
      91         -0.517415        2.000000        0.12681999        0.44880857        0.00024847        0.30786914
      92         -0.516959        2.000000        0.12685476        0.44054517        0.00288245        0.31155191
      93         -0.512984        2.000000        0.00026130        0.00072359        0.61405744        0.00060582
      94         -0.512431        2.000000        0.00043147        0.00157230        0.61748171        0.00118968
      95         -0.509004        2.000000        0.00013264        0.00029476        0.62055361        0.00031230
      96         -0.502357        2.000000        0.00072218        0.00209766        0.53757844        0.00147253
      97         -0.501880        2.000000        0.00099410        0.00241219        0.53546586        0.00299865
      98         -0.498895        2.000000        0.12227421        0.36608687        0.01266405        0.38743710
      99         -0.498511        2.000000        0.03191522        0.10453869        0.39055701        0.09191934
     100         -0.498199        2.000000        0.05814280        0.17127653        0.28258150        0.18741150
     101         -0.497755        2.000000        0.03681957        0.12428009        0.36476393        0.10789753
     102         -0.496097        2.000000        0.00020977        0.00052028        0.52211134        0.00058606
     103         -0.492289        2.000000        0.13764982        0.35500138        0.00074978        0.41241436
     104         -0.491422        2.000000        0.13663338        0.35322198        0.00169262        0.41282964
     105         -0.484394        2.000000        0.13749544        0.42516069        0.00034568        0.33994589
     106         -0.481851        2.000000        0.11234064        0.59665377        0.00037743        0.17925687
     107         -0.476514        2.000000        0.11776538        0.25655394        0.00026419        0.51683457
     108         -0.475512        2.000000        0.11910949        0.24975303        0.00037032        0.52119258
     109         -0.461135        2.000000        0.00011577        0.00041546        0.97586328        0.00036798
     110         -0.451618        2.000000        0.08252352        0.46100837        0.00175918        0.38223469
     111         -0.451158        2.000000        0.09586077        0.25013327        0.00094519        0.57449660
     112         -0.449556        2.000000        0.08122504        0.43430672        0.00496691        0.40578786
     113         -0.447635        2.000000        0.00044707        0.00194293        0.96046652        0.00321103
     114         -0.446775        2.000000        0.00023827        0.00134403        0.96430908        0.00134210
     115         -0.444300        2.000000        0.06140914        0.59954187        0.16528969        0.11217222
     116         -0.443846        2.000000        0.01566008        0.14410854        0.76657647        0.03510631
     117         -0.443339        2.000000        0.07594175        0.31886694        0.03897694        0.49453391
     118         -0.442577        2.000000        0.07457379        0.36624173        0.00119485        0.48689409
     119         -0.430852        2.000000        0.08529339        0.43114870        0.00287802        0.41509360
     120         -0.427192        2.000000        0.00127956        0.01290152        0.97753990        0.00567258
     121         -0.426177        2.000000        0.00030713        0.00197013        0.99463236        0.00207668
     122         -0.425343        2.000000        0.05326123        0.65979172        0.03837503        0.18780040
     123         -0.424738        2.000000        0.05247185        0.11191971        0.01951919        0.75269556
     124         -0.424510        2.000000        0.00299502        0.02308038        0.94819436        0.02179882
     125         -0.421885        2.000000        0.05466445        0.53105113        0.02307792        0.33818314
     126         -0.421348        2.000000        0.05353738        0.46022376        0.01107992        0.41953934
     127         -0.420425        2.000000        0.00243550        0.02496634        0.95304227        0.01653619
     128         -0.420166        2.000000        0.05408338        0.39320286        0.02638991        0.47226622
     129         -0.350358        0.000000        0.00000516        0.00006005        0.32584627        0.00005602
     130         -0.349374        0.000000        0.00000788        0.00001933        0.32801183        0.00002485
     131         -0.347980        0.000000        0.00000784        0.00003116        0.32638349        0.00005611
     132         -0.323432        0.000000        0.00000742        0.00002627        0.47013017        0.00004717
     133         -0.320479        0.000000        0.00001026        0.00002311        0.46415491        0.00001949
     134         -0.319396        0.000000        0.00001124        0.00004389        0.47089707        0.00004512
     135         -0.318173        0.000000        0.00000761        0.00002776        0.46760971        0.00002428
     136         -0.317467        0.000000        0.00001056        0.00004390        0.47744929        0.00002187
     137         -0.303920        0.000000        0.00000868        0.00001168        0.38057155        0.00001967
     138         -0.299839        0.000000        0.00001521        0.00002635        0.46638173        0.00002655
     139         -0.296252        0.000000        0.00000854        0.00001823        0.47017437        0.00001403
     140         -0.295212        0.000000        0.00000511        0.00001611        0.46759128        0.00002067
     141         -0.239100        0.000000        0.00001080        0.00002423        0.50897171        0.00001413
     142         -0.237070        0.000000        0.00001133        0.00002214        0.50616189        0.00001282
     143         -0.236707        0.000000        0.00000722        0.00000767        0.51017116        0.00003957
     144         -0.233175        0.000000        0.00000666        0.00000812        0.51018188        0.00001747
     145         -0.233089        0.000000        0.00000998        0.00001865        0.50967047        0.00001132
     146         -0.212801        0.000000        0.00000721        0.00001520        0.49438621        0.00001032
     147         -0.211711        0.000000        0.00000693        0.00000996        0.49572109        0.00001795
     148         -0.209512        0.000000        0.00000368        0.00001074        0.49554662        0.00001539
     149         -0.168228        0.000000        0.00000599        0.00001031        0.50597416        0.00000953
     150         -0.165760        0.000000        0.00000753        0.00000737        0.50659459        0.00000576
     151         -0.164804        0.000000        0.00000503        0.00000987        0.50608550        0.00000446
     152         -0.155484        0.000000        0.00000295        0.00000774        0.50390059        0.00000346
     153         -0.041764        0.000000        0.30911625        0.01221688        0.00002825        0.03279298
     154         -0.030886        0.000000        0.19670829        0.11572556        0.00003234        0.09078562
     155         -0.023136        0.000000        0.11620264        0.21447372        0.00001973        0.10666424
     156         -0.015829        0.000000        0.22270287        0.09105318        0.00002927        0.08535665
     157         -0.011607        0.000000        0.12342839        0.19905225        0.00002143        0.10310995
     158         -0.006952        0.000000        0.16165339        0.16456002        0.00004337        0.09182804
     159         -0.002643        0.000000        0.11662033        0.03405182        0.00002082        0.28236048
     160          0.002724        0.000000        0.08827108        0.08226124        0.00001059        0.27319147
     161          0.006155        0.000000        0.13674684        0.21868603        0.00001634        0.07478390
     162          0.012000        0.000000        0.08861451        0.27417116        0.00001851        0.08680624
     163          0.020898        0.000000        0.04894207        0.07727743        0.00001092        0.33638155
     164          0.027555        0.000000        0.03878112        0.26478613        0.00001457        0.16352310
     165          0.056164        0.000000        0.16457626        0.11713266        0.00001367        0.13984342
     166          0.067303        0.000000        0.13428352        0.11424502        0.00000924        0.18266229
     167          0.070530        0.000000        0.12593648        0.13097896        0.00001292        0.17916319
     168          0.072244        0.000000        0.06613077        0.10400542        0.00000473        0.28133785
     169          0.074665        0.000000        0.15124194        0.12128665        0.00001194        0.15927899
     170          0.078472        0.000000        0.03396013        0.11528965        0.00001556        0.31507087
     171          0.085519        0.000000        0.06829556        0.16694367        0.00001643        0.22090287
     172          0.088041        0.000000        0.09549663        0.12503650        0.00001322        0.22455630
     173          0.096780        0.000000        0.02795090        0.25693659        0.00001819        0.18131497
     174          0.099086        0.000000        0.02838335        0.29153368        0.00002198        0.15206102
     175          0.101943        0.000000        0.02389363        0.32567619        0.00000797        0.11584865
     176          0.108418        0.000000        0.02172799        0.32287923        0.00002360        0.12120371
     177          0.173146        0.000000        0.03905126        0.19898265        0.00000519        0.22437912
     178          0.175799        0.000000        0.02111604        0.23967258        0.00003201        0.20467136
