# Projected DOS for atomic kind C at iteration step i = 0, E(Fermi) =    -0.418704 a.u.
#     MO Eigenvalue [a.u.]      Occupation                 s                py                pz                px
       1         -0.860189        2.000000        0.16022611        0.10724957        0.00003055        0.09861301
       2         -0.858269        2.000000        0.16250829        0.10314904        0.00003090        0.09953975
       3         -0.856113        2.000000        0.16170939        0.10572115        0.00000996        0.09894147
       4         -0.847005        2.000000        0.16434191        0.10225331        0.00000734        0.09380965
       5         -0.829285        2.000000        0.17287918        0.08431809        0.00002556        0.09155942
       6         -0.825951        2.000000        0.18107327        0.08630192        0.00001573        0.07992513
       7         -0.825660        2.000000        0.17480311        0.08856861        0.00000956        0.08418668
       8         -0.815129        2.000000        0.20109800        0.06916317        0.00001031        0.07367332
       9         -0.806217        2.000000        0.23452039        0.06635848        0.00004467        0.10728843
      10         -0.805083        2.000000        0.19279866        0.07878298        0.00003592        0.13659276
      11         -0.804339        2.000000        0.24358279        0.10920808        0.00001738        0.05013102
      12         -0.802062        2.000000        0.23566432        0.07897718        0.00002660        0.08844306
      13         -0.801365        2.000000        0.22790016        0.11736323        0.00002390        0.06179033
      14         -0.800504        2.000000        0.22229569        0.12323345        0.00002611        0.05385736
      15         -0.799858        2.000000        0.19321550        0.09587033        0.00002703        0.11736180
      16         -0.799029        2.000000        0.20694784        0.07562325        0.00001728        0.12002589
      17         -0.796720        2.000000        0.17900957        0.12196553        0.00003326        0.08411771
      18         -0.796337        2.000000        0.19228532        0.08065017        0.00003241        0.10744799
      19         -0.795803        2.000000        0.13405150        0.15860236        0.00004332        0.09371912
      20         -0.795210        2.000000        0.14893222        0.09101868        0.00003537        0.14231900
      21         -0.794263        2.000000        0.13518721        0.10742653        0.00003215        0.14016405
      22         -0.793201        2.000000        0.14663038        0.14055702        0.00002559        0.09693592
      23         -0.791162        2.000000        0.14784415        0.09178184        0.00001745        0.14010486
      24         -0.790216        2.000000        0.11988627        0.08411095        0.00005434        0.18251147
      25         -0.789971        2.000000        0.12119106        0.15954165        0.00003038        0.10539434
      26         -0.788833        2.000000        0.11235197        0.14343789        0.00001836        0.12606474
      27         -0.787454        2.000000        0.07429907        0.14139062        0.00001647        0.16726561
      28         -0.787085        2.000000        0.07479244        0.15061477        0.00001292        0.16289397
      29         -0.784832        2.000000        0.08955004        0.15912771        0.00001731        0.13267846
      30         -0.783623        2.000000        0.04554056        0.17984470        0.00002684        0.14918337
      31         -0.782369        2.000000        0.02449997        0.16964312        0.00000925        0.18043919
      32         -0.777651        2.000000        0.00828649        0.17925519        0.00001350        0.18409165
      33         -0.698706        2.000000        0.38191424        0.05999781        0.00002638        0.05056525
      34         -0.697082        2.000000        0.38144504        0.06304565        0.00002005        0.04845637
      35         -0.695082        2.000000        0.39390233        0.05215009        0.00002923        0.05384585
      36         -0.691027        2.000000        0.39263819        0.04999215        0.00002504        0.05590184
      37         -0.688648        2.000000        0.39950432        0.05733181        0.00002164        0.04546871
      38         -0.688277        2.000000        0.37548327        0.03480949        0.00001662        0.08264635
      39         -0.682195        2.000000        0.34477221        0.07557617        0.00002501        0.05932955
      40         -0.679801        2.000000        0.35177762        0.05649944        0.00001454        0.07687945
      41         -0.674938        2.000000        0.31537929        0.05914799        0.00004774        0.08610190
      42         -0.672186        2.000000        0.29130294        0.09736660        0.00002513        0.06430874
      43         -0.671030        2.000000        0.29486731        0.08293428        0.00002468        0.07646861
      44         -0.662117        2.000000        0.33035948        0.08461959        0.00003692        0.07981672
      45         -0.657717        2.000000        0.16196013        0.16950404        0.00003973        0.14910508
      46         -0.656844        2.000000        0.15829226        0.15322686        0.00005047        0.17171368
      47         -0.650048        2.000000        0.08244633        0.15290658        0.00012335        0.19359243
      48         -0.647574        2.000000        0.07450700        0.16795160        0.00004649        0.18525527
      49         -0.643742        2.000000        0.09170427        0.13335177        0.00005019        0.20383921
      50         -0.642586        2.000000        0.05653061        0.23201800        0.00016381        0.16129809
      51         -0.638404        2.000000        0.07577037        0.25605922        0.00013828        0.11309978
      52         -0.637952        2.000000        0.07871792        0.16640551        0.00012967        0.19853378
      53         -0.634381        2.000000        0.06349636        0.24159468        0.00007472        0.14177766
      54         -0.634067        2.000000        0.06175990        0.14632880        0.00004847        0.23266337
      55         -0.626517        2.000000        0.12508565        0.21686975        0.00014614        0.14248961
      56         -0.624981        2.000000        0.13301089        0.21937933        0.00007421        0.13386040
      57         -0.621499        2.000000        0.08884545        0.20733889        0.00062447        0.18303363
      58         -0.619000        2.000000        0.00026955        0.00028039        0.47365109        0.00044026
      59         -0.615317        2.000000        0.00010714        0.00015658        0.46663765        0.00020745
      60         -0.613055        2.000000        0.00016737        0.00023130        0.46685764        0.00031180
      61         -0.607388        2.000000        0.00004826        0.00006888        0.47463868        0.00008706
      62         -0.604965        2.000000        0.09477628        0.08976265        0.00030938        0.28449392
      63         -0.603860        2.000000        0.09229901        0.09014336        0.00041345        0.28543733
      64         -0.592785        2.000000        0.12333404        0.24859734        0.00019995        0.09854712
      65         -0.591310        2.000000        0.10539717        0.04684325        0.00048419        0.30519506
      66         -0.589476        2.000000        0.07192937        0.29778601        0.00070669        0.07199106
      67         -0.588039        2.000000        0.07877458        0.24848133        0.00036563        0.12600607
      68         -0.587619        2.000000        0.10349845        0.05466174        0.00811837        0.29074259
      69         -0.584757        2.000000        0.00202809        0.00125217        0.46391180        0.00401380
      70         -0.582438        2.000000        0.00023997        0.00014789        0.46952436        0.00044844
      71         -0.579739        2.000000        0.00035772        0.00034859        0.47437760        0.00086419
      72         -0.572490        2.000000        0.01766278        0.23049642        0.00071864        0.20748381
      73         -0.569393        2.000000        0.04584853        0.21775672        0.00042722        0.17731117
      74         -0.568434        2.000000        0.02989684        0.21094285        0.00056167        0.20879936
      75         -0.560338        2.000000        0.02128601        0.31496864        0.00299143        0.08418114
      76         -0.558755        2.000000        0.00499674        0.07234299        0.30850494        0.01624681
      77         -0.558594        2.000000        0.01717181        0.24973033        0.09013832        0.05451339
      78         -0.556916        2.000000        0.00035616        0.00262713        0.49613558        0.00075968
      79         -0.555976        2.000000        0.00021727        0.00175246        0.50383398        0.00064412
      80         -0.553751        2.000000        0.00048906        0.00268621        0.48408061        0.01504499
      81         -0.552181        2.000000        0.00868345        0.01215174        0.04075363        0.36520320
      82         -0.551606        2.000000        0.00012613        0.00028015        0.50733892        0.00074643
      83         -0.551588        2.000000        0.00044821        0.00078965        0.48932666        0.01632340
      84         -0.546822        2.000000        0.01460024        0.11711588        0.00109089        0.28066182
      85         -0.545366        2.000000        0.01576152        0.27068189        0.00153626        0.12390409
      86         -0.530920        2.000000        0.00029081        0.00007563        0.42993161        0.00017760
      87         -0.528174        2.000000        0.00009242        0.00010957        0.44261856        0.00012492
      88         -0.527274        2.000000        0.00088909        0.00036892        0.44563596        0.00026065
      89         -0.523538        2.000000        0.05984721        0.01317124        0.00488059        0.01413907
      90         -0.518718        2.000000        0.02269329        0.07758682        0.00087405        0.01017525
      91         -0.517156        2.000000        0.01847239        0.03468922        0.00029368        0.06296443
      92         -0.516583        2.000000        0.01739119        0.03419897        0.00498654        0.06427218
      93         -0.513255        2.000000        0.00024920        0.00024520        0.38325597        0.00031387
      94         -0.512459        2.000000        0.00019060        0.00027970        0.37379087        0.00083903
      95         -0.507756        2.000000        0.00010424        0.00007023        0.37508205        0.00012894
      96         -0.502667        2.000000        0.00032359        0.00014194        0.45580011        0.00058247
      97         -0.501887        2.000000        0.00032042        0.00098538        0.45244051        0.00061544
      98         -0.498784        2.000000        0.00647014        0.04322681        0.15101865        0.02042429
      99         -0.498722        2.000000        0.00386697        0.00871269        0.30456983        0.02439744
     100         -0.498131        2.000000        0.00263501        0.01280542        0.37305792        0.00672801
     101         -0.497407        2.000000        0.00892431        0.02574950        0.12999938        0.03689125
     102         -0.495330        2.000000        0.00010728        0.00009798        0.47495240        0.00028651
     103         -0.492006        2.000000        0.04327594        0.01525061        0.00152399        0.03476723
     104         -0.490780        2.000000        0.04394873        0.01455377        0.00300234        0.03533907
     105         -0.484392        2.000000        0.04936859        0.03608190        0.00043083        0.01135505
     106         -0.481309        2.000000        0.00854144        0.01678518        0.00067854        0.08468493
     107         -0.476130        2.000000        0.01420124        0.06267826        0.00026521        0.03016007
     108         -0.474796        2.000000        0.01399012        0.06831199        0.00067920        0.02593080
     109         -0.461247        2.000000        0.00004824        0.00010364        0.02423910        0.00008918
     110         -0.451888        2.000000        0.00814975        0.03973846        0.00025678        0.02311853
     111         -0.451059        2.000000        0.00647977        0.02743237        0.00014275        0.04473644
     112         -0.448814        2.000000        0.00529486        0.03187505        0.00616643        0.02339165
     113         -0.448325        2.000000        0.00121509        0.00644710        0.02921702        0.00526804
     114         -0.447253        2.000000        0.00014333        0.00024703        0.03309420        0.00020800
     115         -0.443746        2.000000        0.01716574        0.02372312        0.00416872        0.01948007
     116         -0.443253        2.000000        0.01777341        0.01631986        0.00305440        0.03092159
     117         -0.442885        2.000000        0.00492178        0.00450408        0.02396210        0.00740034
     118         -0.441837        2.000000        0.01746754        0.01881862        0.00007938        0.03241442
     119         -0.430291        2.000000        0.00058687        0.03226671        0.00010771        0.03204264
     120         -0.427628        2.000000        0.00041415        0.00125886        0.00164365        0.00051778
     121         -0.426336        2.000000        0.00009050        0.00016444        0.00086165        0.00023414
     122         -0.425345        2.000000        0.01263942        0.03618867        0.00018278        0.01085779
     123         -0.424353        2.000000        0.01302576        0.00746575        0.00011570        0.04353477
     124         -0.423895        2.000000        0.00043044        0.00071976        0.00128944        0.00054369
     125         -0.421136        2.000000        0.01355764        0.02128322        0.00016504        0.01533559
     126         -0.420478        2.000000        0.01326658        0.02190073        0.00007076        0.02003189
     127         -0.419893        2.000000        0.00103496        0.00163531        0.00120477        0.00108220
     128         -0.418704        2.000000        0.01351429        0.02315726        0.00004917        0.01780515
     129         -0.351497        0.000000        0.00016541        0.00002579        0.67253554        0.00008829
     130         -0.350116        0.000000        0.00008840        0.00003079        0.66823431        0.00007555
     131         -0.348146        0.000000        0.00017065        0.00004178        0.67135151        0.00007832
     132         -0.324788        0.000000        0.00019348        0.00003221        0.52874711        0.00005071
     133         -0.320550        0.000000        0.00016657        0.00004609        0.53429139        0.00004866
     134         -0.319158        0.000000        0.00013162        0.00002406        0.52883441        0.00004924
     135         -0.317402        0.000000        0.00008265        0.00004861        0.53321533        0.00003684
     136         -0.316832        0.000000        0.00009965        0.00002668        0.52587706        0.00001639
     137         -0.303952        0.000000        0.00017515        0.00002167        0.61642021        0.00005055
     138         -0.299878        0.000000        0.00023158        0.00004317        0.53330885        0.00003876
     139         -0.295417        0.000000        0.00010561        0.00004601        0.53063069        0.00001771
     140         -0.293656        0.000000        0.00009594        0.00002429        0.53374507        0.00003238
     141         -0.240257        0.000000        0.00018065        0.00003735        0.49058237        0.00001920
     142         -0.237062        0.000000        0.00019555        0.00003706        0.49092238        0.00003118
     143         -0.236944        0.000000        0.00013776        0.00003365        0.49271369        0.00002536
     144         -0.231921        0.000000        0.00008681        0.00001688        0.49103131        0.00003457
     145         -0.231677        0.000000        0.00006570        0.00004457        0.48986752        0.00001913
     146         -0.213003        0.000000        0.00014736        0.00002342        0.50531705        0.00001461
     147         -0.211481        0.000000        0.00011619        0.00001563        0.50417337        0.00002324
     148         -0.208462        0.000000        0.00008406        0.00002201        0.50433004        0.00002564
     149         -0.168847        0.000000        0.00021894        0.00002188        0.49404494        0.00001997
     150         -0.165143        0.000000        0.00017462        0.00001592        0.49314243        0.00001593
     151         -0.163817        0.000000        0.00007718        0.00001279        0.49409879        0.00001724
     152         -0.154818        0.000000        0.00012043        0.00000731        0.49606772        0.00001269
     153         -0.044986        0.000000        0.33670861        0.14481072        0.00014999        0.15970865
     154         -0.033420        0.000000        0.34387035        0.12347040        0.00013543        0.12316726
     155         -0.025198        0.000000        0.29296778        0.17247009        0.00011770        0.08805590
     156         -0.015108        0.000000        0.28510740        0.17596506        0.00006343        0.11730110
     157         -0.011892        0.000000        0.35897954        0.14933803        0.00010221        0.08817024
     158         -0.007368        0.000000        0.32117244        0.15349153        0.00007545        0.11113229
     159         -0.001672        0.000000        0.30335434        0.07742206        0.00012950        0.17616236
     160          0.004859        0.000000        0.28532868        0.13096196        0.00011597        0.14737786
     161          0.010071        0.000000        0.31415644        0.17431365        0.00008697        0.07948219
     162          0.015396        0.000000        0.31237735        0.08737087        0.00008624        0.15735151
     163          0.028100        0.000000        0.29545693        0.05420487        0.00018238        0.18966933
     164          0.035034        0.000000        0.28990335        0.13564771        0.00015894        0.10645488
     165          0.044559        0.000000        0.37382943        0.06223481        0.00007072        0.13900245
     166          0.059409        0.000000        0.34315890        0.06706220        0.00007837        0.15672800
     167          0.064443        0.000000        0.33321391        0.04944768        0.00008399        0.17175191
     168          0.065580        0.000000        0.38342127        0.04528716        0.00033371        0.12591966
     169          0.070032        0.000000        0.37371741        0.05917150        0.00040557        0.13080859
     170          0.073273        0.000000        0.35611369        0.02561239        0.00011182        0.16061109
     171          0.084707        0.000000        0.38906251        0.08075170        0.00052720        0.07810048
     172          0.088537        0.000000        0.37480414        0.05444723        0.00019252        0.13165398
     173          0.099255        0.000000        0.34382794        0.10018327        0.00015567        0.09061911
     174          0.101702        0.000000        0.38108760        0.11724228        0.00019873        0.02594667
     175          0.105335        0.000000        0.31642110        0.19250668        0.00002988        0.02777690
     176          0.115342        0.000000        0.30900055        0.20807779        0.00008791        0.01922479
     177          0.165229        0.000000        0.17690014        0.27109851        0.00001970        0.09489862
     178          0.172991        0.000000        0.20749167        0.18058296        0.00008225        0.14995318
