# Projected DOS for atomic kind N at iteration step i = 0, E(Fermi) =    -0.417214 a.u.
#     MO Eigenvalue [a.u.]      Occupation                 s                py                pz                px
       1         -0.860339        2.000000        0.62188038        0.00608009        0.00000113        0.00603719
       2         -0.857948        2.000000        0.62181839        0.00650495        0.00000146        0.00671800
       3         -0.855398        2.000000        0.62078050        0.00651334        0.00000125        0.00634473
       4         -0.843838        2.000000        0.62621844        0.00735359        0.00000231        0.00741018
       5         -0.831875        2.000000        0.63760190        0.00615948        0.00000170        0.00590872
       6         -0.827718        2.000000        0.63825720        0.00624169        0.00000583        0.00715789
       7         -0.827387        2.000000        0.63867179        0.00607487        0.00000122        0.00640895
       8         -0.814221        2.000000        0.64017314        0.00778934        0.00000102        0.00776499
       9         -0.807185        2.000000        0.53901951        0.02083837        0.00001012        0.03168180
      10         -0.806074        2.000000        0.54199834        0.02320181        0.00000625        0.02705986
      11         -0.805034        2.000000        0.54736868        0.02996036        0.00000356        0.02000047
      12         -0.802094        2.000000        0.54786684        0.02454124        0.00000943        0.02582062
      13         -0.801417        2.000000        0.54228133        0.02960093        0.00000777        0.02271297
      14         -0.800355        2.000000        0.55855977        0.03034561        0.00000836        0.01225952
      15         -0.799758        2.000000        0.54875707        0.01963651        0.00000593        0.02766398
      16         -0.798615        2.000000        0.55439151        0.01662240        0.00001188        0.02894216
      17         -0.797035        2.000000        0.58103831        0.01332736        0.00000657        0.01659645
      18         -0.796613        2.000000        0.59445334        0.01094866        0.00000453        0.01231317
      19         -0.796096        2.000000        0.58817800        0.01054127        0.00002029        0.01297236
      20         -0.795392        2.000000        0.59776172        0.00974081        0.00001297        0.00999646
      21         -0.794339        2.000000        0.59609240        0.01056995        0.00000775        0.00757534
      22         -0.793319        2.000000        0.59742899        0.00918299        0.00000805        0.01009820
      23         -0.790670        2.000000        0.60266700        0.00991013        0.00000693        0.00805558
      24         -0.789839        2.000000        0.59696942        0.01263450        0.00001078        0.00500712
      25         -0.789499        2.000000        0.59597943        0.00864529        0.00000906        0.01079554
      26         -0.788389        2.000000        0.59845790        0.01030764        0.00000777        0.01113126
      27         -0.787291        2.000000        0.60060101        0.00762045        0.00000774        0.00866826
      28         -0.786344        2.000000        0.59048860        0.01258252        0.00000514        0.00932279
      29         -0.784224        2.000000        0.59920957        0.00989484        0.00000514        0.00938990
      30         -0.783165        2.000000        0.61067808        0.00676365        0.00001027        0.00857373
      31         -0.781576        2.000000        0.60985298        0.00637528        0.00000342        0.00934065
      32         -0.776887        2.000000        0.61867181        0.00440817        0.00000526        0.00507450
      33         -0.699591        2.000000        0.01322456        0.29176204        0.00003058        0.20193456
      34         -0.697701        2.000000        0.01332822        0.30972675        0.00003732        0.18270768
      35         -0.695500        2.000000        0.00952318        0.18331032        0.00002320        0.30690477
      36         -0.691432        2.000000        0.01772961        0.27213168        0.00003759        0.21168026
      37         -0.688617        2.000000        0.01608174        0.20055008        0.00003956        0.28103856
      38         -0.688063        2.000000        0.02611513        0.17733480        0.00002956        0.30532439
      39         -0.682546        2.000000        0.04722512        0.33974208        0.00006317        0.13428093
      40         -0.679362        2.000000        0.04032712        0.15028990        0.00007244        0.32432297
      41         -0.674819        2.000000        0.05575637        0.26792443        0.00013381        0.21376020
      42         -0.671609        2.000000        0.06365449        0.26839788        0.00006115        0.21164880
      43         -0.669934        2.000000        0.06162250        0.25089387        0.00004076        0.23060526
      44         -0.662228        2.000000        0.02730724        0.24701681        0.00005823        0.23198200
      45         -0.658642        2.000000        0.02211860        0.31173247        0.00011123        0.18753763
      46         -0.657341        2.000000        0.01710179        0.20907902        0.00008591        0.29110983
      47         -0.650279        2.000000        0.05702505        0.23763926        0.00043976        0.27481801
      48         -0.647173        2.000000        0.05615854        0.26797075        0.00005444        0.24708782
      49         -0.643127        2.000000        0.04958206        0.16623233        0.00020568        0.34733031
      50         -0.642214        2.000000        0.04164920        0.19040878        0.00027598        0.32488193
      51         -0.638515        2.000000        0.04035753        0.27032149        0.00029612        0.24379457
      52         -0.637951        2.000000        0.04178188        0.24784637        0.00029755        0.26554497
      53         -0.633537        2.000000        0.03878079        0.26439794        0.00013259        0.25084574
      54         -0.632899        2.000000        0.04421503        0.20176413        0.00006159        0.31531794
      55         -0.627104        2.000000        0.01356540        0.42188974        0.00028317        0.08101972
      56         -0.625231        2.000000        0.01430388        0.41914586        0.00020909        0.08095098
      57         -0.621521        2.000000        0.01758088        0.26914676        0.00158446        0.23399305
      58         -0.619244        2.000000        0.00010541        0.00108490        0.52265605        0.00112639
      59         -0.615446        2.000000        0.00008811        0.00068135        0.53105300        0.00062533
      60         -0.612619        2.000000        0.00009275        0.00063749        0.53062737        0.00070410
      61         -0.605639        2.000000        0.00088696        0.00454246        0.50244025        0.01551658
      62         -0.605506        2.000000        0.01983265        0.10802831        0.02087544        0.38112589
      63         -0.604123        2.000000        0.02025389        0.11271850        0.00091117        0.39763659
      64         -0.593385        2.000000        0.02029897        0.41529207        0.00040825        0.09422390
      65         -0.592074        2.000000        0.02144991        0.02866838        0.00082648        0.49012727
      66         -0.590243        2.000000        0.02534631        0.30121492        0.00135293        0.23048084
      67         -0.588205        2.000000        0.01597570        0.40121740        0.00165400        0.12493488
      68         -0.587578        2.000000        0.01936614        0.03779620        0.05174203        0.43266418
      69         -0.586001        2.000000        0.00241248        0.00423186        0.47923397        0.04558278
      70         -0.583243        2.000000        0.00009954        0.00025972        0.52981227        0.00147781
      71         -0.579990        2.000000        0.00015205        0.00093266        0.52234658        0.00220401
      72         -0.573400        2.000000        0.00648254        0.32745571        0.00136158        0.20899739
      73         -0.569933        2.000000        0.01764730        0.32439297        0.00085104        0.21619396
      74         -0.568418        2.000000        0.00936775        0.27729114        0.00088927        0.26029587
      75         -0.561085        2.000000        0.01371338        0.42927183        0.00454935        0.12682209
      76         -0.559165        2.000000        0.01308559        0.31895462        0.13608377        0.11362106
      77         -0.558947        2.000000        0.00406478        0.09147912        0.47098223        0.03268970
      78         -0.557391        2.000000        0.00037632        0.00501990        0.49431002        0.00259310
      79         -0.556415        2.000000        0.00013405        0.00348011        0.48975585        0.00132491
      80         -0.553713        2.000000        0.00257163        0.01334595        0.40250331        0.09210989
      81         -0.552728        2.000000        0.01126300        0.04482566        0.09514120        0.41228214
      82         -0.551237        2.000000        0.00027347        0.00148645        0.48209692        0.00764451
      83         -0.551054        2.000000        0.00008053        0.00054127        0.49109640        0.00053881
      84         -0.547223        2.000000        0.01492097        0.19693622        0.00217441        0.37189767
      85         -0.545210        2.000000        0.01622058        0.34290796        0.00297943        0.22570341
      86         -0.531315        2.000000        0.00048381        0.00113956        0.56691434        0.00092101
      87         -0.528297        2.000000        0.00029922        0.00075384        0.55427797        0.00089553
      88         -0.527272        2.000000        0.00207102        0.00531377        0.54000921        0.00412560
      89         -0.523125        2.000000        0.14929047        0.38836626        0.00790925        0.36055403
      90         -0.518426        2.000000        0.13030831        0.27578290        0.00298439        0.47909563
      91         -0.516814        2.000000        0.12484790        0.45405285        0.00113357        0.30336465
      92         -0.516201        2.000000        0.12354908        0.42978349        0.01901792        0.30225251
      93         -0.513455        2.000000        0.00154982        0.00465943        0.60606623        0.00427208
      94         -0.512469        2.000000        0.00274476        0.01044541        0.60927886        0.00736902
      95         -0.506732        2.000000        0.00047842        0.00103810        0.62312194        0.00101870
      96         -0.502887        2.000000        0.00160037        0.00445756        0.53494660        0.00319346
      97         -0.501857        2.000000        0.00353455        0.00862078        0.52779260        0.01077966
      98         -0.498887        2.000000        0.00757048        0.01931895        0.49337330        0.02644322
      99         -0.498545        2.000000        0.11944400        0.34821011        0.02562504        0.38705231
     100         -0.498081        2.000000        0.01468012        0.04024170        0.46663718        0.04472893
     101         -0.496860        2.000000        0.10617908        0.35198530        0.07461536        0.31397630
     102         -0.494669        2.000000        0.00084629        0.00218937        0.52051984        0.00221125
     103         -0.491614        2.000000        0.13455993        0.34920549        0.00281599        0.41772211
     104         -0.490119        2.000000        0.13430587        0.34957138        0.00494621        0.41309710
     105         -0.484299        2.000000        0.13560903        0.42910395        0.00142665        0.33647778
     106         -0.480770        2.000000        0.11374309        0.56459141        0.00141858        0.21016961
     107         -0.475622        2.000000        0.11441314        0.28199292        0.00086412        0.49656719
     108         -0.474089        2.000000        0.11895944        0.25080776        0.00134852        0.52064161
     109         -0.461353        2.000000        0.00046188        0.00150018        0.97061348        0.00148161
     110         -0.451999        2.000000        0.07930281        0.47080899        0.00998025        0.36942445
     111         -0.450833        2.000000        0.09821816        0.23826945        0.00553169        0.57930356
     112         -0.449085        2.000000        0.00405868        0.02605119        0.91459269        0.01665962
     113         -0.447900        2.000000        0.06520338        0.36283250        0.16939655        0.33573711
     114         -0.447621        2.000000        0.01059440        0.06168066        0.83010300        0.05805960
     115         -0.443260        2.000000        0.06406214        0.45904257        0.16545707        0.24765125
     116         -0.442941        2.000000        0.07913036        0.43062922        0.00648701        0.41111261
     117         -0.442219        2.000000        0.01276431        0.09343250        0.80059460        0.05530908
     118         -0.441033        2.000000        0.06665923        0.41553834        0.00216971        0.44837178
     119         -0.429691        2.000000        0.08076846        0.44583067        0.01827745        0.39104661
     120         -0.427908        2.000000        0.00296938        0.02667653        0.95076072        0.01456709
     121         -0.426410        2.000000        0.00078861        0.00530678        0.98667964        0.00551474
     122         -0.425147        2.000000        0.05435036        0.59843039        0.03688785        0.25109655
     123         -0.423913        2.000000        0.05273334        0.13050171        0.00556085        0.74757134
     124         -0.423371        2.000000        0.00197284        0.01496278        0.96581873        0.01363650
     125         -0.420402        2.000000        0.04502745        0.41331631        0.17478745        0.32150564
     126         -0.419605        2.000000        0.04523921        0.34522895        0.12929994        0.43179165
     127         -0.419289        2.000000        0.01491021        0.17181858        0.70001264        0.09638788
     128         -0.417214        2.000000        0.04993791        0.53540445        0.01775604        0.34308137
     129         -0.352418        0.000000        0.00002140        0.00022902        0.32838512        0.00021555
     130         -0.350676        0.000000        0.00002666        0.00010286        0.33482781        0.00011200
     131         -0.348311        0.000000        0.00002760        0.00011637        0.33009400        0.00023460
     132         -0.325883        0.000000        0.00002948        0.00010018        0.47131794        0.00018821
     133         -0.320693        0.000000        0.00004344        0.00009816        0.46612159        0.00007214
     134         -0.319075        0.000000        0.00003541        0.00015279        0.47094244        0.00019442
     135         -0.316884        0.000000        0.00003615        0.00010877        0.46579173        0.00009851
     136         -0.316274        0.000000        0.00004144        0.00016479        0.47080837        0.00006922
     137         -0.303811        0.000000        0.00003047        0.00004462        0.38557645        0.00008234
     138         -0.299844        0.000000        0.00006115        0.00009666        0.46578988        0.00009797
     139         -0.294678        0.000000        0.00003103        0.00006321        0.46827473        0.00005117
     140         -0.292357        0.000000        0.00002029        0.00005437        0.46509468        0.00007293
     141         -0.241233        0.000000        0.00003939        0.00008723        0.50899482        0.00005839
     142         -0.237349        0.000000        0.00003221        0.00002222        0.50959390        0.00016102
     143         -0.236905        0.000000        0.00004274        0.00008858        0.50532133        0.00005585
     144         -0.230962        0.000000        0.00001844        0.00002370        0.50775614        0.00005703
     145         -0.230580        0.000000        0.00004830        0.00007257        0.50995385        0.00005521
     146         -0.213036        0.000000        0.00002860        0.00005500        0.49435756        0.00004341
     147         -0.211100        0.000000        0.00002471        0.00004000        0.49539640        0.00006838
     148         -0.207544        0.000000        0.00001447        0.00003925        0.49533297        0.00005875
     149         -0.169328        0.000000        0.00002480        0.00003914        0.50525138        0.00004033
     150         -0.164526        0.000000        0.00002849        0.00002740        0.50652342        0.00002528
     151         -0.162986        0.000000        0.00001751        0.00004112        0.50534537        0.00001932
     152         -0.154125        0.000000        0.00000996        0.00003018        0.50356180        0.00001517
     153         -0.048118        0.000000        0.26586021        0.01549264        0.00010302        0.08062640
     154         -0.034923        0.000000        0.17225454        0.13384394        0.00013645        0.10996217
     155         -0.027133        0.000000        0.07750223        0.27496189        0.00009149        0.09702635
     156         -0.017234        0.000000        0.11769131        0.18889513        0.00010127        0.12098255
     157         -0.008825        0.000000        0.23890908        0.10390488        0.00011499        0.05217176
     158         -0.006761        0.000000        0.16005858        0.13838359        0.00016026        0.12483753
     159         -0.001369        0.000000        0.10619572        0.07873603        0.00009015        0.25943645
     160          0.008378        0.000000        0.14276526        0.11837869        0.00004879        0.16408403
     161          0.014048        0.000000        0.13552008        0.20461387        0.00007184        0.09442962
     162          0.019856        0.000000        0.12206161        0.15127150        0.00004303        0.16847079
     163          0.034552        0.000000        0.14396965        0.11992550        0.00004602        0.16667733
     164          0.035911        0.000000        0.07712530        0.11678686        0.00003861        0.26224997
     165          0.042404        0.000000        0.05432937        0.22524523        0.00004689        0.18737601
     166          0.053149        0.000000        0.10813964        0.11518870        0.00003787        0.20912387
     167          0.058744        0.000000        0.07892639        0.09822020        0.00001741        0.26588009
     168          0.060816        0.000000        0.08746955        0.12918771        0.00004874        0.23319475
     169          0.065563        0.000000        0.07479053        0.11834806        0.00007257        0.25424455
     170          0.069667        0.000000        0.12253056        0.11223010        0.00003388        0.20949288
     171          0.084887        0.000000        0.09725679        0.16981457        0.00006278        0.18417309
     172          0.089697        0.000000        0.12185416        0.12621726        0.00005157        0.18732867
     173          0.101341        0.000000        0.03437707        0.23237884        0.00005974        0.19705412
     174          0.103698        0.000000        0.03292124        0.27511209        0.00006249        0.17040429
     175          0.107867        0.000000        0.02540162        0.33133039        0.00002502        0.10512489
     176          0.121293        0.000000        0.02312906        0.31989372        0.00009928        0.11877866
     177          0.157880        0.000000        0.07163051        0.15154817        0.00002536        0.22993591
     178          0.171042        0.000000        0.02938275        0.21351515        0.00004903        0.21539036
