# Projected DOS for atomic kind C at iteration step i = 0, E(Fermi) =    -0.420166 a.u.
#     MO Eigenvalue [a.u.]      Occupation                 s                py                pz                px
       1         -0.859950        2.000000        0.16018699        0.10602103        0.00001422        0.10010575
       2         -0.858628        2.000000        0.16172466        0.10320608        0.00001344        0.10073070
       3         -0.857076        2.000000        0.16123803        0.10497463        0.00000485        0.10029728
       4         -0.850811        2.000000        0.16281006        0.10267169        0.00000376        0.09679711
       5         -0.826571        2.000000        0.17623213        0.08301320        0.00001152        0.08810526
       6         -0.824280        2.000000        0.18268173        0.08422641        0.00000677        0.07956165
       7         -0.824030        2.000000        0.17777202        0.08583645        0.00000452        0.08285814
       8         -0.816731        2.000000        0.19607624        0.07233681        0.00000444        0.07550198
       9         -0.805029        2.000000        0.24073941        0.06497380        0.00002018        0.10205022
      10         -0.803854        2.000000        0.19940715        0.09885416        0.00001952        0.10896184
      11         -0.803567        2.000000        0.24583031        0.08252547        0.00000827        0.07656206
      12         -0.802064        2.000000        0.24017231        0.06904243        0.00001252        0.09541665
      13         -0.801334        2.000000        0.22893869        0.12436210        0.00001026        0.05605316
      14         -0.800792        2.000000        0.22333703        0.11408727        0.00001319        0.06360167
      15         -0.800042        2.000000        0.19865454        0.10303630        0.00001057        0.10548905
      16         -0.799602        2.000000        0.20989329        0.07608064        0.00000731        0.11855441
      17         -0.796233        2.000000        0.19153768        0.10800486        0.00001440        0.08219760
      18         -0.795985        2.000000        0.18587900        0.09497974        0.00001646        0.09830578
      19         -0.795353        2.000000        0.13874306        0.15476303        0.00001446        0.09002159
      20         -0.794895        2.000000        0.14204578        0.09638711        0.00001384        0.14363394
      21         -0.794286        2.000000        0.14975625        0.10832040        0.00001837        0.12278595
      22         -0.793024        2.000000        0.14499865        0.13895900        0.00001227        0.09599877
      23         -0.791538        2.000000        0.13814658        0.09000856        0.00000694        0.15521456
      24         -0.790652        2.000000        0.11709952        0.09101548        0.00001975        0.18010295
      25         -0.790406        2.000000        0.11377797        0.16617355        0.00001401        0.10821653
      26         -0.789175        2.000000        0.10922025        0.14174163        0.00000816        0.13302744
      27         -0.788003        2.000000        0.10401182        0.13691638        0.00000808        0.14531946
      28         -0.787610        2.000000        0.06044841        0.13494829        0.00000876        0.19112925
      29         -0.785184        2.000000        0.06606987        0.17218145        0.00000783        0.14112691
      30         -0.783999        2.000000        0.03784443        0.18534235        0.00001080        0.15213352
      31         -0.783234        2.000000        0.02042678        0.17602800        0.00000418        0.17819726
      32         -0.778374        2.000000        0.00408677        0.18264751        0.00000633        0.18452536
      33         -0.697816        2.000000        0.38072472        0.06064449        0.00001151        0.05036277
      34         -0.696594        2.000000        0.38001858        0.06309599        0.00000964        0.04844001
      35         -0.694911        2.000000        0.39533156        0.05354953        0.00001063        0.05012549
      36         -0.690562        2.000000        0.38923709        0.04362703        0.00001227        0.06483090
      37         -0.688806        2.000000        0.39069465        0.04392749        0.00000988        0.06425100
      38         -0.688634        2.000000        0.39363133        0.05029878        0.00000745        0.05540568
      39         -0.681937        2.000000        0.34666647        0.07749487        0.00001147        0.05674677
      40         -0.680453        2.000000        0.35226468        0.05443364        0.00000686        0.07813379
      41         -0.675067        2.000000        0.31307677        0.05716496        0.00002233        0.08857232
      42         -0.673011        2.000000        0.28868336        0.09638266        0.00001138        0.06483418
      43         -0.672373        2.000000        0.29240952        0.08529332        0.00001170        0.07367391
      44         -0.661962        2.000000        0.33351488        0.08226568        0.00001724        0.07999643
      45         -0.656848        2.000000        0.15934988        0.17248188        0.00001664        0.15104674
      46         -0.656370        2.000000        0.15574019        0.15509998        0.00002283        0.17338419
      47         -0.649755        2.000000        0.07850871        0.15629232        0.00005592        0.19289271
      48         -0.648117        2.000000        0.07112667        0.16991206        0.00002254        0.18557948
      49         -0.644779        2.000000        0.09490687        0.11102234        0.00002029        0.22058787
      50         -0.642834        2.000000        0.05037425        0.24833066        0.00007335        0.15348071
      51         -0.638236        2.000000        0.08077294        0.26230324        0.00006481        0.10119444
      52         -0.637911        2.000000        0.08314795        0.13954057        0.00006761        0.22007777
      53         -0.635283        2.000000        0.06146600        0.19426065        0.00002476        0.19153478
      54         -0.635159        2.000000        0.06200378        0.21017547        0.00002891        0.17338406
      55         -0.625888        2.000000        0.13024341        0.21688452        0.00007426        0.13844955
      56         -0.624792        2.000000        0.13499399        0.21903803        0.00004594        0.13285855
      57         -0.621415        2.000000        0.09230423        0.20788865        0.00021734        0.18140647
      58         -0.618782        2.000000        0.00010726        0.00009849        0.47394655        0.00016699
      59         -0.615129        2.000000        0.00004880        0.00007203        0.46626026        0.00008979
      60         -0.613616        2.000000        0.00008112        0.00011437        0.46655023        0.00013780
      61         -0.609609        2.000000        0.00001942        0.00003444        0.47184805        0.00003611
      62         -0.604419        2.000000        0.09381687        0.08895922        0.00011743        0.28600365
      63         -0.603689        2.000000        0.09214628        0.09036181        0.00017381        0.28547549
      64         -0.592218        2.000000        0.13005636        0.25058443        0.00008854        0.09056039
      65         -0.590460        2.000000        0.10615687        0.04483274        0.00020023        0.30583558
      66         -0.588775        2.000000        0.07073697        0.27860154        0.00037110        0.09520971
      67         -0.587884        2.000000        0.07879920        0.20571814        0.00039492        0.16833835
      68         -0.587846        2.000000        0.09912451        0.12128519        0.00142039        0.23078877
      69         -0.583386        2.000000        0.00042032        0.00031280        0.47169101        0.00067776
      70         -0.581726        2.000000        0.00009173        0.00006467        0.47203864        0.00017127
      71         -0.579767        2.000000        0.00015670        0.00016402        0.47624353        0.00036923
      72         -0.571579        2.000000        0.01136153        0.23055892        0.00033830        0.21562831
      73         -0.568896        2.000000        0.04353611        0.21588310        0.00018057        0.18284882
      74         -0.568428        2.000000        0.03585566        0.21016770        0.00027383        0.20038577
      75         -0.559544        2.000000        0.02150917        0.31815013        0.00149708        0.08007743
      76         -0.558637        2.000000        0.00023294        0.00300134        0.38496389        0.00082813
      77         -0.558250        2.000000        0.02195276        0.31976320        0.00565405        0.07076426
      78         -0.556272        2.000000        0.00016170        0.00111467        0.50209777        0.00033551
      79         -0.555422        2.000000        0.00010140        0.00087304        0.50545435        0.00035366
      80         -0.553852        2.000000        0.00014835        0.00112689        0.50078263        0.00383766
      81         -0.552167        2.000000        0.00004177        0.00010365        0.50963586        0.00026472
      82         -0.551997        2.000000        0.00024238        0.00026035        0.49994495        0.00928189
      83         -0.551585        2.000000        0.00917310        0.00870205        0.01643491        0.38748607
      84         -0.546455        2.000000        0.01459961        0.12186036        0.00046598        0.27587250
      85         -0.545570        2.000000        0.01545207        0.26960613        0.00073659        0.12588418
      86         -0.530478        2.000000        0.00014774        0.00003918        0.43042042        0.00008330
      87         -0.528045        2.000000        0.00004018        0.00005022        0.44169891        0.00006352
      88         -0.527354        2.000000        0.00041951        0.00016308        0.44459902        0.00011973
      89         -0.523864        2.000000        0.06048682        0.01314910        0.00240032        0.01389449
      90         -0.518943        2.000000        0.02257411        0.07945818        0.00034349        0.00874045
      91         -0.517415        2.000000        0.01837566        0.03393822        0.00013309        0.06380685
      92         -0.516959        2.000000        0.01750401        0.03401629        0.00174932        0.06489610
      93         -0.512984        2.000000        0.00009995        0.00008024        0.38405787        0.00011388
      94         -0.512431        2.000000        0.00007261        0.00009730        0.37885335        0.00030157
      95         -0.509004        2.000000        0.00004632        0.00004222        0.37856513        0.00005292
      96         -0.502357        2.000000        0.00017307        0.00007213        0.45752061        0.00036339
      97         -0.501880        2.000000        0.00014707        0.00045239        0.45725254        0.00027719
      98         -0.498895        2.000000        0.00926300        0.04817640        0.01098100        0.04311724
      99         -0.498511        2.000000        0.00281250        0.00917593        0.35543854        0.01363793
     100         -0.498199        2.000000        0.00481613        0.02460104        0.25352136        0.01765680
     101         -0.497755        2.000000        0.00335113        0.00963447        0.33680608        0.01644451
     102         -0.496097        2.000000        0.00004646        0.00004742        0.47635016        0.00012846
     103         -0.492289        2.000000        0.04509140        0.01462139        0.00068001        0.03379187
     104         -0.491422        2.000000        0.04486446        0.01458275        0.00156391        0.03461127
     105         -0.484394        2.000000        0.05080325        0.03708192        0.00017897        0.00898817
     106         -0.481851        2.000000        0.00745525        0.01293007        0.00031084        0.09067514
     107         -0.476514        2.000000        0.01401541        0.06702370        0.00014240        0.02740042
     108         -0.475512        2.000000        0.01391043        0.06965053        0.00030791        0.02570569
     109         -0.461135        2.000000        0.00002086        0.00004553        0.02313178        0.00003935
     110         -0.451618        2.000000        0.00770949        0.03992370        0.00008937        0.02475168
     111         -0.451158        2.000000        0.00622104        0.02843328        0.00005687        0.04385300
     112         -0.449556        2.000000        0.00648124        0.03854696        0.00019100        0.02849426
     113         -0.447635        2.000000        0.00005836        0.00017674        0.03350476        0.00019259
     114         -0.446775        2.000000        0.00007206        0.00009344        0.03251319        0.00008782
     115         -0.444300        2.000000        0.01654885        0.02421895        0.00516520        0.01565440
     116         -0.443846        2.000000        0.00419358        0.00578100        0.02427875        0.00429502
     117         -0.443339        2.000000        0.01932818        0.01564758        0.00147001        0.03523467
     118         -0.442577        2.000000        0.01844859        0.01771388        0.00006151        0.03487154
     119         -0.430852        2.000000        0.00026908        0.03254723        0.00005055        0.03271942
     120         -0.427192        2.000000        0.00027512        0.00081845        0.00122386        0.00028898
     121         -0.426177        2.000000        0.00005609        0.00008925        0.00073646        0.00013188
     122         -0.425343        2.000000        0.01281592        0.03820069        0.00009993        0.00965516
     123         -0.424738        2.000000        0.01283225        0.00690739        0.00005608        0.04359815
     124         -0.424510        2.000000        0.00072285        0.00116610        0.00093402        0.00110818
     125         -0.421885        2.000000        0.01440891        0.02301571        0.00004691        0.01555186
     126         -0.421348        2.000000        0.01362619        0.02351727        0.00004095        0.01843520
     127         -0.420425        2.000000        0.00063527        0.00104727        0.00058871        0.00074838
     128         -0.420166        2.000000        0.01365598        0.01962387        0.00002442        0.02075343
     129         -0.350358        0.000000        0.00007092        0.00001127        0.67391195        0.00003834
     130         -0.349374        0.000000        0.00004251        0.00001459        0.67184573        0.00003332
     131         -0.347980        0.000000        0.00007708        0.00001811        0.67339196        0.00003427
     132         -0.323432        0.000000        0.00009018        0.00001525        0.52966063        0.00002291
     133         -0.320479        0.000000        0.00007012        0.00001958        0.53568088        0.00002166
     134         -0.319396        0.000000        0.00005911        0.00001368        0.52890995        0.00001992
     135         -0.318173        0.000000        0.00003543        0.00002014        0.53225891        0.00001617
     136         -0.317467        0.000000        0.00004574        0.00001233        0.52240684        0.00000948
     137         -0.303920        0.000000        0.00007565        0.00000988        0.61928100        0.00002190
     138         -0.299839        0.000000        0.00010824        0.00002016        0.53340332        0.00001841
     139         -0.296252        0.000000        0.00004715        0.00002151        0.52970838        0.00000778
     140         -0.295212        0.000000        0.00004535        0.00001096        0.53229691        0.00001359
     141         -0.239100        0.000000        0.00008292        0.00001789        0.49086945        0.00000886
     142         -0.237070        0.000000        0.00005838        0.00001840        0.49370543        0.00000964
     143         -0.236707        0.000000        0.00008686        0.00001358        0.48965773        0.00001621
     144         -0.233175        0.000000        0.00004442        0.00001013        0.48971539        0.00001573
     145         -0.233089        0.000000        0.00002639        0.00001797        0.49023647        0.00000894
     146         -0.212801        0.000000        0.00006275        0.00001096        0.50550073        0.00000660
     147         -0.211711        0.000000        0.00005445        0.00000705        0.50417263        0.00000995
     148         -0.209512        0.000000        0.00003895        0.00001030        0.50436296        0.00001137
     149         -0.168228        0.000000        0.00009664        0.00000952        0.49388479        0.00000906
     150         -0.165760        0.000000        0.00008045        0.00000684        0.49329026        0.00000721
     151         -0.164804        0.000000        0.00003536        0.00000596        0.49384597        0.00000785
     152         -0.155484        0.000000        0.00005751        0.00000334        0.49601899        0.00000542
     153         -0.041764        0.000000        0.36554805        0.14136391        0.00006681        0.13886686
     154         -0.030886        0.000000        0.33554334        0.13086006        0.00006346        0.13028128
     155         -0.023136        0.000000        0.31181789        0.15731363        0.00006129        0.09344688
     156         -0.015829        0.000000        0.35428361        0.14459212        0.00002696        0.10195544
     157         -0.011607        0.000000        0.27682000        0.18495042        0.00004214        0.11257536
     158         -0.006952        0.000000        0.30809847        0.16180717        0.00003062        0.11197892
     159         -0.002643        0.000000        0.29121006        0.06131039        0.00007622        0.21434977
     160          0.002724        0.000000        0.27979229        0.11293089        0.00004396        0.16349842
     161          0.006155        0.000000        0.30579301        0.18991406        0.00004025        0.07401967
     162          0.012000        0.000000        0.29033237        0.12715433        0.00004061        0.13286230
     163          0.020898        0.000000        0.27668592        0.04801860        0.00006823        0.21261527
     164          0.027555        0.000000        0.27460205        0.15405855        0.00006397        0.10417050
     165          0.056164        0.000000        0.39554108        0.06415610        0.00003092        0.11870594
     166          0.067303        0.000000        0.37549250        0.05908650        0.00005232        0.13416864
     167          0.070530        0.000000        0.39637201        0.05882843        0.00014621        0.10856189
     168          0.072244        0.000000        0.34089004        0.03569994        0.00003296        0.17189822
     169          0.074665        0.000000        0.40665387        0.05713479        0.00014770        0.10424407
     170          0.078471        0.000000        0.33636032        0.02378515        0.00009261        0.17542568
     171          0.085519        0.000000        0.36903667        0.07363763        0.00018425        0.10098290
     172          0.088041        0.000000        0.36938945        0.05073352        0.00010232        0.13467207
     173          0.096780        0.000000        0.34510876        0.11623808        0.00007627        0.07235623
     174          0.099086        0.000000        0.36535298        0.13577325        0.00009195        0.02678180
     175          0.101943        0.000000        0.32590751        0.18576609        0.00001767        0.02288230
     176          0.108418        0.000000        0.32014298        0.19505926        0.00004214        0.01892108
     177          0.173146        0.000000        0.19528605        0.26227300        0.00000941        0.08001328
     178          0.175799        0.000000        0.21879289        0.21569912        0.00004468        0.09997139
