# Projected DOS for atomic kind C at iteration step i = 0, E(Fermi) =    -0.417214 a.u.
#     MO Eigenvalue [a.u.]      Occupation                 s                py                pz                px
       1         -0.860339        2.000000        0.16028954        0.10833539        0.00005181        0.09732447
       2         -0.857948        2.000000        0.16324860        0.10310193        0.00005388        0.09855278
       3         -0.855398        2.000000        0.16212246        0.10638183        0.00001649        0.09783940
       4         -0.843838        2.000000        0.16565318        0.10192245        0.00001181        0.09142804
       5         -0.831875        2.000000        0.17044102        0.08544299        0.00004385        0.09440035
       6         -0.827718        2.000000        0.17933032        0.08835030        0.00002809        0.08062868
       7         -0.827387        2.000000        0.17218965        0.09102062        0.00001588        0.08561701
       8         -0.814221        2.000000        0.20433275        0.06715259        0.00001835        0.07276783
       9         -0.807185        2.000000        0.22912053        0.07074037        0.00007718        0.10851212
      10         -0.806074        2.000000        0.18941478        0.07343291        0.00005101        0.14483504
      11         -0.805034        2.000000        0.24091472        0.11723577        0.00002817        0.04448827
      12         -0.802094        2.000000        0.23240284        0.08569045        0.00004295        0.08362563
      13         -0.801417        2.000000        0.22595337        0.11191395        0.00004263        0.06748705
      14         -0.800355        2.000000        0.21889871        0.12450584        0.00004234        0.05537985
      15         -0.799758        2.000000        0.18785749        0.09685722        0.00004732        0.11917447
      16         -0.798615        2.000000        0.19850758        0.07964132        0.00003566        0.12184748
      17         -0.797035        2.000000        0.17527884        0.12524590        0.00005768        0.08844889
      18         -0.796613        2.000000        0.19091644        0.07850960        0.00004663        0.11280762
      19         -0.796096        2.000000        0.14235155        0.15258497        0.00008685        0.09326471
      20         -0.795392        2.000000        0.15498149        0.08495015        0.00006933        0.14248707
      21         -0.794339        2.000000        0.11530276        0.11534261        0.00004063        0.15506855
      22         -0.793319        2.000000        0.16529669        0.12907995        0.00005032        0.08885480
      23         -0.790670        2.000000        0.14497233        0.10033382        0.00003289        0.13402131
      24         -0.789839        2.000000        0.12157133        0.08485879        0.00010734        0.17884072
      25         -0.789499        2.000000        0.12321676        0.15441428        0.00004834        0.10689131
      26         -0.788389        2.000000        0.11459334        0.14103076        0.00003264        0.12443869
      27         -0.787291        2.000000        0.04945958        0.15106825        0.00002215        0.18255257
      28         -0.786344        2.000000        0.09821472        0.15294894        0.00002239        0.13641490
      29         -0.784224        2.000000        0.09953125        0.15193102        0.00002717        0.13001111
      30         -0.783165        2.000000        0.05296087        0.17251498        0.00005056        0.14844786
      31         -0.781576        2.000000        0.02862728        0.16597815        0.00001665        0.17980560
      32         -0.776887        2.000000        0.01237220        0.17583923        0.00002252        0.18360630
      33         -0.699591        2.000000        0.38257849        0.05954737        0.00004656        0.05087584
      34         -0.697701        2.000000        0.38232831        0.06335179        0.00003259        0.04848735
      35         -0.695500        2.000000        0.39237530        0.05100986        0.00005772        0.05679564
      36         -0.691432        2.000000        0.39253792        0.05313415        0.00003813        0.05271065
      37         -0.688617        2.000000        0.39845911        0.06054993        0.00003664        0.04324438
      38         -0.688063        2.000000        0.37021017        0.03266970        0.00003024        0.08828603
      39         -0.682546        2.000000        0.34292114        0.07417621        0.00004297        0.06154837
      40         -0.679362        2.000000        0.35024034        0.05850693        0.00002439        0.07621591
      41         -0.674819        2.000000        0.31734249        0.06005599        0.00008096        0.08494574
      42         -0.671609        2.000000        0.29323454        0.09836878        0.00004414        0.06459023
      43         -0.669934        2.000000        0.29589555        0.08223511        0.00004178        0.07866516
      44         -0.662228        2.000000        0.32652448        0.08725991        0.00006120        0.07979012
      45         -0.658642        2.000000        0.16501973        0.16661625        0.00007180        0.14679231
      46         -0.657341        2.000000        0.16276666        0.15007509        0.00008632        0.16969539
      47         -0.650279        2.000000        0.08568288        0.15160050        0.00021096        0.19258358
      48         -0.647173        2.000000        0.07791430        0.16579964        0.00007739        0.18493712
      49         -0.643127        2.000000        0.07847110        0.17479603        0.00015132        0.18323118
      50         -0.642214        2.000000        0.07386254        0.19337086        0.00022817        0.17532253
      51         -0.638515        2.000000        0.07204996        0.25574808        0.00022090        0.11721134
      52         -0.637951        2.000000        0.07655915        0.17840182        0.00020666        0.18936160
      53         -0.633537        2.000000        0.06474639        0.25149865        0.00014724        0.12945065
      54         -0.632899        2.000000        0.06220525        0.13040745        0.00008172        0.24594691
      55         -0.627104        2.000000        0.11927087        0.21661721        0.00022279        0.14713109
      56         -0.625231        2.000000        0.13069365        0.21918404        0.00010721        0.13540530
      57         -0.621521        2.000000        0.08385356        0.20623090        0.00139630        0.18621409
      58         -0.619244        2.000000        0.00051967        0.00061912        0.47298293        0.00090554
      59         -0.615446        2.000000        0.00018226        0.00026595        0.46673047        0.00037353
      60         -0.612619        2.000000        0.00028443        0.00038031        0.46670004        0.00057351
      61         -0.605639        2.000000        0.00391000        0.00341639        0.45828117        0.01100619
      62         -0.605506        2.000000        0.09197433        0.08752842        0.01892096        0.27171400
      63         -0.604123        2.000000        0.09247941        0.08963457        0.00077051        0.28559536
      64         -0.593385        2.000000        0.11659362        0.24548887        0.00035491        0.10733941
      65         -0.592074        2.000000        0.10429332        0.05049317        0.00090751        0.30323396
      66         -0.590243        2.000000        0.07575165        0.30206810        0.00122832        0.06255693
      67         -0.588205        2.000000        0.08163376        0.24049109        0.00135693        0.13273624
      68         -0.587578        2.000000        0.09483434        0.04892184        0.04639791        0.26827737
      69         -0.586001        2.000000        0.01149248        0.00599257        0.42384371        0.02721015
      70         -0.583243        2.000000        0.00049557        0.00027190        0.46662347        0.00095973
      71         -0.579990        2.000000        0.00065731        0.00062153        0.47146493        0.00162094
      72         -0.573400        2.000000        0.02185086        0.23108641        0.00122756        0.20153795
      73         -0.569933        2.000000        0.04759528        0.21990298        0.00073605        0.17268042
      74         -0.568418        2.000000        0.02683999        0.21179087        0.00091195        0.21261316
      75         -0.561085        2.000000        0.02110114        0.31119156        0.00463289        0.08871775
      76         -0.559165        2.000000        0.01700953        0.24882668        0.09804217        0.05437658
      77         -0.558947        2.000000        0.00509575        0.07256556        0.30690792        0.01621495
      78         -0.557391        2.000000        0.00056071        0.00419852        0.49168976        0.00125168
      79         -0.556415        2.000000        0.00036570        0.00266927        0.50132227        0.00094784
      80         -0.553713        2.000000        0.00190943        0.00661642        0.41059727        0.07034609
      81         -0.552728        2.000000        0.00760583        0.01353606        0.09754958        0.31779653
      82         -0.551237        2.000000        0.00025517        0.00060070        0.50183789        0.00580488
      83         -0.551054        2.000000        0.00016013        0.00040222        0.50674383        0.00043681
      84         -0.547223        2.000000        0.01466829        0.11352496        0.00208642        0.28379106
      85         -0.545210        2.000000        0.01608830        0.27103518        0.00262313        0.12244201
      86         -0.531315        2.000000        0.00046109        0.00011627        0.42966296        0.00030097
      87         -0.528297        2.000000        0.00016310        0.00018599        0.44322606        0.00019830
      88         -0.527272        2.000000        0.00133413        0.00062126        0.44611656        0.00040846
      89         -0.523125        2.000000        0.05917264        0.01327336        0.00704445        0.01438955
      90         -0.518426        2.000000        0.02286362        0.07596623        0.00179387        0.01120504
      91         -0.516814        2.000000        0.01842684        0.03513303        0.00055910        0.06248206
      92         -0.516201        2.000000        0.01713817        0.03389493        0.01118426        0.06317965
      93         -0.513455        2.000000        0.00047188        0.00054850        0.38178113        0.00065094
      94         -0.512469        2.000000        0.00041431        0.00064724        0.36724138        0.00185902
      95         -0.506732        2.000000        0.00018659        0.00009099        0.37382421        0.00024104
      96         -0.502887        2.000000        0.00048293        0.00023370        0.45430951        0.00077588
      97         -0.501857        2.000000        0.00052068        0.00160438        0.44611889        0.00102845
      98         -0.498887        2.000000        0.00089975        0.00410820        0.44710325        0.00118286
      99         -0.498545        2.000000        0.00930391        0.04912656        0.02174550        0.03949257
     100         -0.498081        2.000000        0.00183696        0.00686216        0.42152001        0.00349293
     101         -0.496860        2.000000        0.01154896        0.02941365        0.07042725        0.04185410
     102         -0.494669        2.000000        0.00019376        0.00017378        0.47335533        0.00051038
     103         -0.491614        2.000000        0.04128604        0.01599407        0.00261202        0.03580435
     104         -0.490119        2.000000        0.04315971        0.01445629        0.00454036        0.03592308
     105         -0.484299        2.000000        0.04809787        0.03542615        0.00080071        0.01305785
     106         -0.480770        2.000000        0.00929429        0.02045754        0.00115228        0.07917320
     107         -0.475622        2.000000        0.01435688        0.05832617        0.00039166        0.03308792
     108         -0.474089        2.000000        0.01407257        0.06699695        0.00115738        0.02601576
     109         -0.461353        2.000000        0.00008458        0.00017934        0.02552582        0.00015310
     110         -0.451999        2.000000        0.00838621        0.03911174        0.00056408        0.02242147
     111         -0.450833        2.000000        0.00672963        0.02702842        0.00031091        0.04460818
     112         -0.449085        2.000000        0.00031548        0.00204631        0.03496130        0.00131473
     113         -0.447900        2.000000        0.00542231        0.03129143        0.00621326        0.02390346
     114         -0.447621        2.000000        0.00099265        0.00511153        0.02949306        0.00396510
     115         -0.443260        2.000000        0.01644532        0.01995354        0.00513733        0.02225079
     116         -0.442941        2.000000        0.01967258        0.01995196        0.00020550        0.03281076
     117         -0.442219        2.000000        0.00345371        0.00380027        0.02639499        0.00425055
     118         -0.441033        2.000000        0.01670470        0.01954898        0.00010359        0.03090366
     119         -0.429691        2.000000        0.00097560        0.03192910        0.00018230        0.03098982
     120         -0.427908        2.000000        0.00052033        0.00171113        0.00199592        0.00079890
     121         -0.426410        2.000000        0.00011207        0.00023097        0.00102098        0.00034621
     122         -0.425147        2.000000        0.01224340        0.03448215        0.00030017        0.01220913
     123         -0.423913        2.000000        0.01297080        0.00798518        0.00022253        0.04245425
     124         -0.423371        2.000000        0.00048742        0.00078708        0.00159295        0.00074171
     125         -0.420402        2.000000        0.01198172        0.01851600        0.00042883        0.01443661
     126         -0.419605        2.000000        0.01149059        0.01849448        0.00040897        0.01804620
     127         -0.419289        2.000000        0.00397536        0.00694235        0.00144199        0.00451100
     128         -0.417214        2.000000        0.01311045        0.02410507        0.00008836        0.01651635
     129         -0.352418        0.000000        0.00029219        0.00004537        0.67065501        0.00015634
     130         -0.350676        0.000000        0.00014498        0.00005195        0.66460021        0.00013352
     131         -0.348311        0.000000        0.00029158        0.00007309        0.66902462        0.00013814
     132         -0.325883        0.000000        0.00032095        0.00005485        0.52790065        0.00008776
     133         -0.320693        0.000000        0.00029808        0.00008168        0.53319923        0.00008569
     134         -0.319075        0.000000        0.00022444        0.00003701        0.52832349        0.00009000
     135         -0.316884        0.000000        0.00014778        0.00008956        0.53366244        0.00006506
     136         -0.316274        0.000000        0.00016998        0.00004417        0.52867616        0.00002586
     137         -0.303811        0.000000        0.00031136        0.00003736        0.61382732        0.00009007
     138         -0.299844        0.000000        0.00038246        0.00007499        0.53343214        0.00006474
     139         -0.294678        0.000000        0.00018088        0.00007710        0.53129037        0.00003151
     140         -0.292357        0.000000        0.00016139        0.00004196        0.53449537        0.00005900
     141         -0.241233        0.000000        0.00030444        0.00006179        0.49042087        0.00003309
     142         -0.237349        0.000000        0.00036655        0.00005697        0.48970550        0.00006163
     143         -0.236905        0.000000        0.00021930        0.00006521        0.49417150        0.00003548
     144         -0.230962        0.000000        0.00013567        0.00002703        0.49192472        0.00005726
     145         -0.230580        0.000000        0.00011956        0.00007841        0.48963707        0.00003504
     146         -0.213036        0.000000        0.00026049        0.00003949        0.50518962        0.00002583
     147         -0.211100        0.000000        0.00019298        0.00002701        0.50420907        0.00004146
     148         -0.207544        0.000000        0.00014221        0.00003712        0.50432994        0.00004530
     149         -0.169328        0.000000        0.00038202        0.00003887        0.49418911        0.00003434
     150         -0.164526        0.000000        0.00029147        0.00002854        0.49304765        0.00002774
     151         -0.162986        0.000000        0.00013139        0.00002168        0.49439397        0.00002964
     152         -0.154125        0.000000        0.00019781        0.00001255        0.49614957        0.00002297
     153         -0.048118        0.000000        0.31579749        0.14415008        0.00026318        0.17770698
     154         -0.034923        0.000000        0.34820574        0.11797691        0.00022431        0.11739595
     155         -0.027133        0.000000        0.28135841        0.18903244        0.00018385        0.07984334
     156         -0.017234        0.000000        0.28109120        0.17159696        0.00012970        0.11951189
     157         -0.008825        0.000000        0.36258275        0.16936185        0.00019714        0.07275755
     158         -0.006761        0.000000        0.33718814        0.12604358        0.00014083        0.11318749
     159         -0.001369        0.000000        0.31620990        0.08053732        0.00013198        0.15866245
     160          0.008378        0.000000        0.30825435        0.13268568        0.00024315        0.13354005
     161          0.014048        0.000000        0.32364462        0.15609702        0.00014064        0.08548230
     162          0.019856        0.000000        0.31962478        0.07729203        0.00013902        0.16109724
     163          0.034552        0.000000        0.34661700        0.06446215        0.00018197        0.15812038
     164          0.035911        0.000000        0.32803138        0.05678389        0.00028962        0.15869437
     165          0.042404        0.000000        0.30516798        0.11030943        0.00031089        0.11721420
     166          0.053149        0.000000        0.32549432        0.07545283        0.00011064        0.16645213
     167          0.058744        0.000000        0.31864300        0.06022989        0.00007299        0.17801003
     168          0.060816        0.000000        0.38256531        0.04044720        0.00063667        0.12645007
     169          0.065563        0.000000        0.33465288        0.04971697        0.00070909        0.16746535
     170          0.069667        0.000000        0.38488539        0.04161096        0.00019002        0.12902621
     171          0.084887        0.000000        0.39975599        0.08047037        0.00101454        0.06745187
     172          0.089697        0.000000        0.37484117        0.05611099        0.00028064        0.13331555
     173          0.101341        0.000000        0.34033445        0.09286291        0.00024913        0.10268373
     174          0.103698        0.000000        0.39329440        0.09866967        0.00033207        0.02920375
     175          0.107867        0.000000        0.30867303        0.19569357        0.00004592        0.03370556
     176          0.121293        0.000000        0.29792468        0.21917304        0.00014344        0.02085814
     177          0.157880        0.000000        0.16319700        0.27797699        0.00003450        0.10565156
     178          0.171042        0.000000        0.18964159        0.12161443        0.00009961        0.23030707
