# Projected DOS for atomic kind N at iteration step i = 0, E(Fermi) =    -0.418704 a.u.
#     MO Eigenvalue [a.u.]      Occupation                 s                py                pz                px
       1         -0.860189        2.000000        0.62181649        0.00604304        0.00000065        0.00602059
       2         -0.858269        2.000000        0.62184597        0.00637878        0.00000082        0.00654645
       3         -0.856113        2.000000        0.62097966        0.00638742        0.00000075        0.00625020
       4         -0.847005        2.000000        0.62550148        0.00702393        0.00000139        0.00706099
       5         -0.829285        2.000000        0.63869270        0.00636353        0.00000102        0.00616049
       6         -0.825951        2.000000        0.63907448        0.00641112        0.00000328        0.00719506
       7         -0.825660        2.000000        0.63959558        0.00630840        0.00000077        0.00652732
       8         -0.815129        2.000000        0.64080463        0.00762516        0.00000057        0.00762484
       9         -0.806217        2.000000        0.53821509        0.02171559        0.00000578        0.03185159
      10         -0.805083        2.000000        0.54008148        0.02432154        0.00000450        0.02738220
      11         -0.804339        2.000000        0.54612090        0.02926343        0.00000213        0.02167424
      12         -0.802062        2.000000        0.54492330        0.02470696        0.00000555        0.02725314
      13         -0.801365        2.000000        0.53833750        0.03183055        0.00000447        0.02274981
      14         -0.800504        2.000000        0.55580769        0.03160377        0.00000494        0.01317095
      15         -0.799858        2.000000        0.54305139        0.02126124        0.00000326        0.02920943
      16         -0.799029        2.000000        0.54837538        0.01808978        0.00000553        0.03091502
      17         -0.796719        2.000000        0.58898871        0.01140408        0.00000376        0.01447735
      18         -0.796337        2.000000        0.59823556        0.00985181        0.00000347        0.01149324
      19         -0.795803        2.000000        0.59216138        0.01065041        0.00001054        0.01076138
      20         -0.795210        2.000000        0.59823160        0.00924518        0.00000743        0.01021057
      21         -0.794263        2.000000        0.59863764        0.01108560        0.00000538        0.00746146
      22         -0.793201        2.000000        0.59787940        0.00829444        0.00000443        0.00967282
      23         -0.791162        2.000000        0.60268611        0.00966876        0.00000360        0.00789318
      24         -0.790216        2.000000        0.59509843        0.01293827        0.00000572        0.00539457
      25         -0.789971        2.000000        0.59490866        0.00805326        0.00000553        0.01087509
      26         -0.788833        2.000000        0.59751902        0.00917715        0.00000428        0.01142661
      27         -0.787454        2.000000        0.59945468        0.00793904        0.00000423        0.00963025
      28         -0.787085        2.000000        0.59176866        0.01392196        0.00000329        0.00599200
      29         -0.784832        2.000000        0.59955539        0.00835086        0.00000385        0.01071639
      30         -0.783623        2.000000        0.61099568        0.00615600        0.00000582        0.00824705
      31         -0.782369        2.000000        0.61041800        0.00596675        0.00000189        0.00902179
      32         -0.777651        2.000000        0.61964896        0.00410398        0.00000338        0.00459683
      33         -0.698706        2.000000        0.01371519        0.28283127        0.00001888        0.21093096
      34         -0.697082        2.000000        0.01411655        0.30592590        0.00002095        0.18696946
      35         -0.695082        2.000000        0.00906673        0.22727484        0.00001595        0.26371498
      36         -0.691027        2.000000        0.01866743        0.24268480        0.00001999        0.24007051
      37         -0.688648        2.000000        0.01627929        0.18807275        0.00002229        0.29329916
      38         -0.688277        2.000000        0.02473160        0.18240661        0.00001649        0.29988958
      39         -0.682195        2.000000        0.04669388        0.34767361        0.00003830        0.12589124
      40         -0.679801        2.000000        0.04082265        0.13728468        0.00004044        0.33668115
      41         -0.674938        2.000000        0.05722940        0.27120043        0.00007889        0.21081438
      42         -0.672186        2.000000        0.06657883        0.26638480        0.00003667        0.21399629
      43         -0.671030        2.000000        0.06410244        0.25406984        0.00002294        0.22750990
      44         -0.662117        2.000000        0.02680087        0.24489827        0.00003293        0.23343521
      45         -0.657717        2.000000        0.01965119        0.31266723        0.00005923        0.18701335
      46         -0.656844        2.000000        0.01595003        0.20692901        0.00005152        0.29378619
      47         -0.650048        2.000000        0.05753104        0.24484328        0.00026134        0.26829569
      48         -0.647574        2.000000        0.05658644        0.27487969        0.00003426        0.24073928
      49         -0.643742        2.000000        0.05905098        0.12583809        0.00004998        0.38611555
      50         -0.642586        2.000000        0.03160522        0.21556999        0.00021314        0.30260112
      51         -0.638404        2.000000        0.04126957        0.27034551        0.00018670        0.24313060
      52         -0.637952        2.000000        0.04306292        0.24538618        0.00019328        0.26757073
      53         -0.634381        2.000000        0.03749821        0.25745603        0.00006492        0.25803744
      54         -0.634067        2.000000        0.04211181        0.21884845        0.00003742        0.29820178
      55         -0.626517        2.000000        0.01372339        0.42627336        0.00018885        0.07522326
      56         -0.624981        2.000000        0.01413350        0.42294524        0.00014084        0.07645559
      57         -0.621499        2.000000        0.01756821        0.26179381        0.00070553        0.24008999
      58         -0.619000        2.000000        0.00005330        0.00051968        0.52424111        0.00054460
      59         -0.615317        2.000000        0.00005289        0.00040605        0.53207656        0.00035566
      60         -0.613055        2.000000        0.00005456        0.00039520        0.53159588        0.00038623
      61         -0.607388        2.000000        0.00001467        0.00006729        0.52497889        0.00009625
      62         -0.604965        2.000000        0.02053458        0.11229775        0.00029300        0.39753244
      63         -0.603860        2.000000        0.02026247        0.11379844        0.00049864        0.39714731
      64         -0.592785        2.000000        0.02139076        0.42061393        0.00024119        0.08707568
      65         -0.591310        2.000000        0.02179690        0.02216524        0.00042671        0.49769149
      66         -0.589476        2.000000        0.02381500        0.31088699        0.00076610        0.22211883
      67         -0.588039        2.000000        0.01657055        0.40083214        0.00046993        0.12849974
      68         -0.587619        2.000000        0.02131686        0.03852899        0.00878843        0.47434455
      69         -0.584757        2.000000        0.00045006        0.00105821        0.52039545        0.00689044
      70         -0.582438        2.000000        0.00004902        0.00015798        0.52876457        0.00066778
      71         -0.579739        2.000000        0.00008645        0.00050952        0.52226115        0.00119481
      72         -0.572490        2.000000        0.00545494        0.31663829        0.00079445        0.22075067
      73         -0.569393        2.000000        0.01711549        0.32712675        0.00049866        0.21391538
      74         -0.568434        2.000000        0.01054461        0.28870482        0.00055701        0.24999289
      75         -0.560338        2.000000        0.01463827        0.42838366        0.00293824        0.13061259
      76         -0.558755        2.000000        0.00378380        0.09385517        0.46673349        0.03353636
      77         -0.558594        2.000000        0.01351933        0.32004607        0.14322088        0.11165964
      78         -0.556916        2.000000        0.00024379        0.00313073        0.49510879        0.00163808
      79         -0.555976        2.000000        0.00008740        0.00232167        0.49024860        0.00089452
      80         -0.553751        2.000000        0.00063122        0.00423619        0.47268710        0.02014457
      81         -0.552181        2.000000        0.01306297        0.04513101        0.03934513        0.47566905
      82         -0.551606        2.000000        0.00006920        0.00048035        0.49001825        0.00094084
      83         -0.551588        2.000000        0.00063143        0.00270083        0.46842613        0.02135328
      84         -0.546822        2.000000        0.01499699        0.20454207        0.00113061        0.36586149
      85         -0.545366        2.000000        0.01602835        0.34355595        0.00174331        0.22678863
      86         -0.530920        2.000000        0.00033162        0.00078665        0.56778098        0.00062511
      87         -0.528174        2.000000        0.00017853        0.00047333        0.55587316        0.00052953
      88         -0.527274        2.000000        0.00146627        0.00366820        0.54468541        0.00302553
      89         -0.523538        2.000000        0.15057544        0.38761794        0.00558177        0.36418673
      90         -0.518718        2.000000        0.13103753        0.27294508        0.00149131        0.48319665
      91         -0.517156        2.000000        0.12590529        0.45162511        0.00057837        0.30547149
      92         -0.516583        2.000000        0.12565900        0.43715077        0.00839249        0.30794888
      93         -0.513255        2.000000        0.00073704        0.00215947        0.61115181        0.00188747
      94         -0.512459        2.000000        0.00121037        0.00453098        0.61586990        0.00328852
      95         -0.507756        2.000000        0.00028351        0.00061963        0.62308204        0.00062928
      96         -0.502667        2.000000        0.00118354        0.00335987        0.53622756        0.00238089
      97         -0.501887        2.000000        0.00216219        0.00527336        0.53163754        0.00656513
      98         -0.498784        2.000000        0.08510805        0.22915522        0.16737101        0.29718708
      99         -0.498722        2.000000        0.04552305        0.15820307        0.33568191        0.11908276
     100         -0.498131        2.000000        0.02732797        0.07627134        0.41296692        0.08820986
     101         -0.497407        2.000000        0.09059432        0.29938588        0.13924450        0.26920938
     102         -0.495330        2.000000        0.00046573        0.00118590        0.52167088        0.00123326
     103         -0.492006        2.000000        0.13621536        0.35240485        0.00165439        0.41490764
     104         -0.490780        2.000000        0.13539342        0.35095680        0.00325800        0.41354788
     105         -0.484392        2.000000        0.13657149        0.42801834        0.00079268        0.33738113
     106         -0.481309        2.000000        0.11307467        0.58078291        0.00083088        0.19462144
     107         -0.476130        2.000000        0.11616580        0.26817522        0.00053634        0.50781787
     108         -0.474796        2.000000        0.11905926        0.24999578        0.00079796        0.52123488
     109         -0.461247        2.000000        0.00026609        0.00090066        0.97350622        0.00084687
     110         -0.451888        2.000000        0.08073057        0.47171176        0.00468826        0.37160591
     111         -0.451059        2.000000        0.09764332        0.23879229        0.00238209        0.58239097
     112         -0.448814        2.000000        0.06601540        0.36769521        0.17056649        0.32899500
     113         -0.448325        2.000000        0.01395375        0.07216014        0.79389878        0.07783997
     114         -0.447253        2.000000        0.00056887        0.00336452        0.95905462        0.00331939
     115         -0.443746        2.000000        0.06669779        0.56787420        0.13193477        0.16895569
     116         -0.443253        2.000000        0.07058178        0.34408561        0.10872943        0.40853388
     117         -0.442885        2.000000        0.01826588        0.10380602        0.73133667        0.10580313
     118         -0.441837        2.000000        0.06984069        0.39808106        0.00154097        0.46175732
     119         -0.430291        2.000000        0.08338866        0.43876776        0.00776730        0.40507234
     120         -0.427628        2.000000        0.00208357        0.01968556        0.96444365        0.00995275
     121         -0.426336        2.000000        0.00055016        0.00367230        0.99074155        0.00368524
     122         -0.425345        2.000000        0.05398415        0.62843960        0.03559435        0.22211328
     123         -0.424353        2.000000        0.05321603        0.12110710        0.00258605        0.75894882
     124         -0.423895        2.000000        0.00176901        0.01436095        0.97033432        0.01055237
     125         -0.421136        2.000000        0.05107491        0.48800075        0.07402317        0.33655971
     126         -0.420478        2.000000        0.05260529        0.41402742        0.00907943        0.46901792
     127         -0.419893        2.000000        0.00375654        0.04313532        0.92298803        0.02516283
     128         -0.418704        2.000000        0.05231948        0.49788406        0.01323134        0.38203925
     129         -0.351497        0.000000        0.00001196        0.00013251        0.32691526        0.00012528
     130         -0.350116        0.000000        0.00001620        0.00005180        0.33144298        0.00006006
     131         -0.348146        0.000000        0.00001655        0.00006831        0.32814195        0.00013099
     132         -0.324788        0.000000        0.00001687        0.00005815        0.47079414        0.00010733
     133         -0.320550        0.000000        0.00002427        0.00005426        0.46532681        0.00004198
     134         -0.319158        0.000000        0.00002195        0.00009064        0.47073921        0.00010889
     135         -0.317402        0.000000        0.00001926        0.00006153        0.46648000        0.00005574
     136         -0.316832        0.000000        0.00002407        0.00009817        0.47381554        0.00004245
     137         -0.303952        0.000000        0.00001825        0.00002572        0.38324256        0.00004590
     138         -0.299878        0.000000        0.00003478        0.00005702        0.46622814        0.00005769
     139         -0.295417        0.000000        0.00001843        0.00003814        0.46911312        0.00003026
     140         -0.293656        0.000000        0.00001156        0.00003309        0.46601412        0.00004350
     141         -0.240257        0.000000        0.00002339        0.00005200        0.50907233        0.00003272
     142         -0.237062        0.000000        0.00002073        0.00001494        0.50870013        0.00007775
     143         -0.236944        0.000000        0.00002184        0.00004984        0.50697428        0.00004388
     144         -0.231921        0.000000        0.00001131        0.00001363        0.50876983        0.00003558
     145         -0.231677        0.000000        0.00002665        0.00004334        0.50990401        0.00002915
     146         -0.213003        0.000000        0.00001636        0.00003250        0.49442449        0.00002422
     147         -0.211481        0.000000        0.00001470        0.00002275        0.49559401        0.00004013
     148         -0.208462        0.000000        0.00000832        0.00002319        0.49547275        0.00003398
     149         -0.168847        0.000000        0.00001378        0.00002288        0.50563521        0.00002241
     150         -0.165143        0.000000        0.00001654        0.00001605        0.50660469        0.00001383
     151         -0.163817        0.000000        0.00001048        0.00002293        0.50575001        0.00001059
     152         -0.154818        0.000000        0.00000600        0.00001739        0.50376015        0.00000832
     153         -0.044986        0.000000        0.28469516        0.01437005        0.00006008        0.05949673
     154         -0.033420        0.000000        0.18610835        0.12271390        0.00007728        0.10045702
     155         -0.025198        0.000000        0.08889468        0.25085258        0.00004858        0.10659268
     156         -0.015108        0.000000        0.13682476        0.18369215        0.00006037        0.10098568
     157         -0.011892        0.000000        0.21375681        0.10115978        0.00005332        0.08844024
     158         -0.007368        0.000000        0.17639844        0.14713785        0.00010269        0.09048919
     159         -0.001672        0.000000        0.10283160        0.06261267        0.00004919        0.27743820
     160          0.004859        0.000000        0.10572966        0.12139082        0.00002377        0.20907125
     161          0.010071        0.000000        0.13677299        0.21032665        0.00004092        0.08482031
     162          0.015396        0.000000        0.11636509        0.19180379        0.00002967        0.13461551
     163          0.028100        0.000000        0.06363374        0.10265496        0.00002284        0.29417496
     164          0.035034        0.000000        0.04480303        0.24622420        0.00002968        0.17677821
     165          0.044559        0.000000        0.15161746        0.11437612        0.00002826        0.15884079
     166          0.059409        0.000000        0.11474426        0.11679999        0.00002088        0.20140742
     167          0.064443        0.000000        0.07695774        0.10052300        0.00001291        0.26800889
     168          0.065580        0.000000        0.10001531        0.12785409        0.00002581        0.21714296
     169          0.070032        0.000000        0.12205460        0.12251594        0.00003381        0.19129249
     170          0.073273        0.000000        0.06964305        0.10930561        0.00002627        0.27857613
     171          0.084707        0.000000        0.08970495        0.16953784        0.00003764        0.19227766
     172          0.088537        0.000000        0.11342426        0.12500237        0.00002932        0.20044619
     173          0.099255        0.000000        0.03136456        0.24074558        0.00003716        0.19306671
     174          0.101702        0.000000        0.03026299        0.28524885        0.00004132        0.15997156
     175          0.105335        0.000000        0.02473366        0.32933760        0.00001528        0.10917889
     176          0.115342        0.000000        0.02261290        0.32210496        0.00005466        0.11883644
     177          0.165229        0.000000        0.05750736        0.17134775        0.00001311        0.22821481
     178          0.172991        0.000000        0.02550235        0.23250544        0.00005560        0.20382654
