# Projected DOS for atomic kind N at iteration step i = 0, E(Fermi) =    -0.420166 a.u.
#     MO Eigenvalue [a.u.]      Occupation                 s                py                pz                px
       1         -0.859950        2.000000        0.62165662        0.00601090        0.00000032        0.00600418
       2         -0.858628        2.000000        0.62172491        0.00624283        0.00000034        0.00635705
       3         -0.857076        2.000000        0.62108891        0.00624467        0.00000038        0.00615126
       4         -0.850811        2.000000        0.62436190        0.00666401        0.00000068        0.00669080
       5         -0.826571        2.000000        0.63962409        0.00658665        0.00000049        0.00642667
       6         -0.824280        2.000000        0.63971275        0.00659462        0.00000141        0.00721467
       7         -0.824030        2.000000        0.64036189        0.00653567        0.00000039        0.00663092
       8         -0.816731        2.000000        0.64123355        0.00741886        0.00000023        0.00742788
       9         -0.805029        2.000000        0.53757792        0.02301999        0.00000258        0.03161591
      10         -0.803854        2.000000        0.54034432        0.02942476        0.00000246        0.02298579
      11         -0.803567        2.000000        0.54157833        0.02438216        0.00000106        0.02911234
      12         -0.802064        2.000000        0.54149397        0.02418614        0.00000243        0.02967355
      13         -0.801334        2.000000        0.53328532        0.03477447        0.00000197        0.02257403
      14         -0.800792        2.000000        0.55097442        0.03119139        0.00000219        0.01679285
      15         -0.800042        2.000000        0.54055654        0.02456780        0.00000129        0.02768391
      16         -0.799602        2.000000        0.54374983        0.01960398        0.00000221        0.03210834
      17         -0.796233        2.000000        0.59574882        0.01026003        0.00000166        0.01223496
      18         -0.795985        2.000000        0.60128618        0.00869127        0.00000189        0.01083968
      19         -0.795353        2.000000        0.59668592        0.01089360        0.00000340        0.00887493
      20         -0.794895        2.000000        0.59835972        0.00864364        0.00000338        0.01091259
      21         -0.794286        2.000000        0.59988908        0.01218149        0.00000268        0.00704579
      22         -0.793024        2.000000        0.60418196        0.00660070        0.00000227        0.00924636
      23         -0.791538        2.000000        0.59940821        0.00969463        0.00000132        0.00751920
      24         -0.790652        2.000000        0.59259300        0.01257121        0.00000262        0.00659548
      25         -0.790406        2.000000        0.59389804        0.00741467        0.00000231        0.01050293
      26         -0.789175        2.000000        0.59606747        0.00823793        0.00000201        0.01169510
      27         -0.788003        2.000000        0.59398786        0.01018930        0.00000162        0.00956547
      28         -0.787610        2.000000        0.59586054        0.01367897        0.00000168        0.00392410
      29         -0.785184        2.000000        0.60284047        0.00627841        0.00000241        0.01149264
      30         -0.783999        2.000000        0.61086442        0.00577078        0.00000243        0.00803128
      31         -0.783234        2.000000        0.61116524        0.00557676        0.00000087        0.00860090
      32         -0.778374        2.000000        0.62089887        0.00376794        0.00000173        0.00406548
      33         -0.697816        2.000000        0.01431791        0.26889142        0.00000918        0.22503800
      34         -0.696594        2.000000        0.01492545        0.29394181        0.00000868        0.19955984
      35         -0.694911        2.000000        0.00917889        0.29101359        0.00000893        0.20078138
      36         -0.690562        2.000000        0.02047918        0.20177579        0.00000814        0.28002960
      37         -0.688806        2.000000        0.01983214        0.15148950        0.00000996        0.32978538
      38         -0.688634        2.000000        0.01881686        0.21440115        0.00000690        0.26743184
      39         -0.681937        2.000000        0.04595760        0.35891629        0.00001844        0.11418808
      40         -0.680453        2.000000        0.04181801        0.11973435        0.00001688        0.35359179
      41         -0.675067        2.000000        0.05870157        0.27568990        0.00003637        0.20673578
      42         -0.673011        2.000000        0.06910317        0.26489099        0.00001781        0.21607645
      43         -0.672373        2.000000        0.06679933        0.25740739        0.00001034        0.22439449
      44         -0.661962        2.000000        0.02648518        0.24262027        0.00001445        0.23508586
      45         -0.656848        2.000000        0.01705708        0.31242180        0.00002372        0.18760226
      46         -0.656370        2.000000        0.01485335        0.20328953        0.00002392        0.29758600
      47         -0.649755        2.000000        0.05816304        0.25720820        0.00011964        0.25675947
      48         -0.648117        2.000000        0.05722834        0.28409026        0.00001729        0.23202334
      49         -0.644779        2.000000        0.06209129        0.10224173        0.00001493        0.40911469
      50         -0.642834        2.000000        0.02794713        0.21810121        0.00009519        0.30159750
      51         -0.638236        2.000000        0.04300415        0.27134273        0.00008788        0.24122981
      52         -0.637911        2.000000        0.04504148        0.24000518        0.00010178        0.27201766
      53         -0.635283        2.000000        0.03676920        0.24250372        0.00001859        0.27342229
      54         -0.635159        2.000000        0.03775741        0.24993421        0.00002779        0.26668836
      55         -0.625888        2.000000        0.01400512        0.42984835        0.00009729        0.07039750
      56         -0.624792        2.000000        0.01406769        0.42797196        0.00008156        0.07094229
      57         -0.621415        2.000000        0.01753783        0.25251718        0.00024352        0.24788478
      58         -0.618782        2.000000        0.00002116        0.00019728        0.52526082        0.00020146
      59         -0.615129        2.000000        0.00002470        0.00018854        0.53315796        0.00015790
      60         -0.613616        2.000000        0.00002605        0.00019838        0.53271728        0.00017477
      61         -0.609609        2.000000        0.00000645        0.00003056        0.52798783        0.00003715
      62         -0.604419        2.000000        0.02040017        0.11222096        0.00010809        0.39837360
      63         -0.603689        2.000000        0.02025253        0.11423210        0.00021183        0.39714614
      64         -0.592218        2.000000        0.02268396        0.42347794        0.00011265        0.08243572
      65         -0.590460        2.000000        0.02206911        0.01883292        0.00017242        0.50190014
      66         -0.588775        2.000000        0.02165163        0.31657586        0.00039313        0.21646006
      67         -0.587884        2.000000        0.01690061        0.33643858        0.00040953        0.19300067
      68         -0.587846        2.000000        0.02259250        0.10382742        0.00152121        0.41944002
      69         -0.583386        2.000000        0.00009970        0.00031200        0.52530711        0.00117929
      70         -0.581726        2.000000        0.00001940        0.00007617        0.52729254        0.00024558
      71         -0.579767        2.000000        0.00003989        0.00022622        0.52227212        0.00052828
      72         -0.571579        2.000000        0.00367152        0.30013040        0.00036647        0.23794455
      73         -0.568896        2.000000        0.01621368        0.32963593        0.00020829        0.21149349
      74         -0.568428        2.000000        0.01296597        0.30561814        0.00029362        0.23443931
      75         -0.559544        2.000000        0.01562921        0.42741226        0.00149773        0.13422700
      76         -0.558637        2.000000        0.00015838        0.00400792        0.60517756        0.00162984
      77         -0.558250        2.000000        0.01723230        0.41446933        0.00832803        0.14183607
      78         -0.556272        2.000000        0.00011328        0.00132206        0.49412755        0.00072746
      79         -0.555422        2.000000        0.00004680        0.00117984        0.49149883        0.00049209
      80         -0.553852        2.000000        0.00018712        0.00160728        0.48703780        0.00527227
      81         -0.552167        2.000000        0.00002345        0.00018101        0.48941536        0.00033417
      82         -0.551997        2.000000        0.00034311        0.00078787        0.47696489        0.01217457
      83         -0.551585        2.000000        0.01413554        0.04145500        0.01569162        0.50692174
      84         -0.546455        2.000000        0.01515083        0.21385845        0.00047578        0.35771648
      85         -0.545570        2.000000        0.01580727        0.34377044        0.00082869        0.22791463
      86         -0.530478        2.000000        0.00018521        0.00044040        0.56833318        0.00035058
      87         -0.528045        2.000000        0.00008568        0.00024221        0.55757170        0.00024759
      88         -0.527354        2.000000        0.00072161        0.00175555        0.55067114        0.00155036
      89         -0.523864        2.000000        0.15187190        0.38623113        0.00281282        0.36915342
      90         -0.518943        2.000000        0.13166759        0.26928561        0.00060448        0.48732609
      91         -0.517415        2.000000        0.12682002        0.44880860        0.00024846        0.30786909
      92         -0.516959        2.000000        0.12685474        0.44054518        0.00288245        0.31155190
      93         -0.512984        2.000000        0.00026130        0.00072359        0.61405735        0.00060582
      94         -0.512431        2.000000        0.00043147        0.00157231        0.61748172        0.00118968
      95         -0.509004        2.000000        0.00013264        0.00029476        0.62055370        0.00031230
      96         -0.502357        2.000000        0.00072218        0.00209765        0.53757843        0.00147253
      97         -0.501880        2.000000        0.00099410        0.00241219        0.53546586        0.00299866
      98         -0.498895        2.000000        0.12227427        0.36608720        0.01266384        0.38743706
      99         -0.498511        2.000000        0.03191686        0.10454337        0.39055011        0.09192477
     100         -0.498199        2.000000        0.05814024        0.17126858        0.28259233        0.18740353
     101         -0.497755        2.000000        0.03682046        0.12428299        0.36476024        0.10790012
     102         -0.496097        2.000000        0.00020978        0.00052028        0.52211137        0.00058607
     103         -0.492289        2.000000        0.13764981        0.35500144        0.00074978        0.41241431
     104         -0.491422        2.000000        0.13663338        0.35322198        0.00169262        0.41282963
     105         -0.484394        2.000000        0.13749542        0.42516072        0.00034568        0.33994588
     106         -0.481851        2.000000        0.11234065        0.59665366        0.00037743        0.17925697
     107         -0.476514        2.000000        0.11776537        0.25655404        0.00026419        0.51683447
     108         -0.475512        2.000000        0.11910949        0.24975304        0.00037032        0.52119259
     109         -0.461135        2.000000        0.00011577        0.00041546        0.97586326        0.00036798
     110         -0.451618        2.000000        0.08252353        0.46100821        0.00175917        0.38223484
     111         -0.451158        2.000000        0.09586078        0.25013455        0.00094519        0.57449530
     112         -0.449556        2.000000        0.08122501        0.43430550        0.00496693        0.40578911
     113         -0.447635        2.000000        0.00044707        0.00194294        0.96046648        0.00321105
     114         -0.446775        2.000000        0.00023827        0.00134402        0.96430909        0.00134210
     115         -0.444300        2.000000        0.06140978        0.59954734        0.16528188        0.11217360
     116         -0.443846        2.000000        0.01565957        0.14410294        0.76658331        0.03510584
     117         -0.443339        2.000000        0.07594168        0.31886688        0.03897792        0.49453309
     118         -0.442577        2.000000        0.07457374        0.36624190        0.00119484        0.48689399
     119         -0.430852        2.000000        0.08529339        0.43114876        0.00287804        0.41509354
     120         -0.427192        2.000000        0.00127955        0.01290136        0.97754014        0.00567254
     121         -0.426177        2.000000        0.00030713        0.00197016        0.99463235        0.00207668
     122         -0.425343        2.000000        0.05326133        0.65979199        0.03837345        0.18780153
     123         -0.424738        2.000000        0.05247202        0.11192072        0.01951621        0.75269718
     124         -0.424510        2.000000        0.00299478        0.02307887        0.94819863        0.02179657
     125         -0.421885        2.000000        0.05466447        0.53105165        0.02307751        0.33818298
     126         -0.421348        2.000000        0.05353737        0.46022346        0.01108011        0.41953945
     127         -0.420425        2.000000        0.00243542        0.02496571        0.95304368        0.01653557
     128         -0.420166        2.000000        0.05408342        0.39320364        0.02638879        0.47226645
     129         -0.350358        0.000000        0.00000516        0.00006005        0.32584628        0.00005602
     130         -0.349374        0.000000        0.00000788        0.00001933        0.32801179        0.00002485
     131         -0.347980        0.000000        0.00000784        0.00003116        0.32638347        0.00005611
     132         -0.323432        0.000000        0.00000742        0.00002627        0.47013016        0.00004717
     133         -0.320479        0.000000        0.00001026        0.00002311        0.46415489        0.00001949
     134         -0.319396        0.000000        0.00001124        0.00004389        0.47089709        0.00004512
     135         -0.318173        0.000000        0.00000761        0.00002776        0.46760971        0.00002428
     136         -0.317467        0.000000        0.00001056        0.00004390        0.47744927        0.00002187
     137         -0.303920        0.000000        0.00000868        0.00001168        0.38057154        0.00001967
     138         -0.299839        0.000000        0.00001521        0.00002635        0.46638174        0.00002655
     139         -0.296252        0.000000        0.00000854        0.00001823        0.47017437        0.00001403
     140         -0.295212        0.000000        0.00000511        0.00001611        0.46759129        0.00002067
     141         -0.239100        0.000000        0.00001080        0.00002423        0.50897171        0.00001413
     142         -0.237070        0.000000        0.00001133        0.00002214        0.50616187        0.00001282
     143         -0.236707        0.000000        0.00000722        0.00000767        0.51017117        0.00003957
     144         -0.233175        0.000000        0.00000667        0.00000812        0.51018207        0.00001747
     145         -0.233089        0.000000        0.00000998        0.00001865        0.50967027        0.00001132
     146         -0.212801        0.000000        0.00000721        0.00001520        0.49438622        0.00001032
     147         -0.211711        0.000000        0.00000693        0.00000996        0.49572108        0.00001795
     148         -0.209512        0.000000        0.00000368        0.00001074        0.49554661        0.00001539
     149         -0.168228        0.000000        0.00000599        0.00001031        0.50597416        0.00000953
     150         -0.165760        0.000000        0.00000753        0.00000737        0.50659458        0.00000576
     151         -0.164804        0.000000        0.00000503        0.00000987        0.50608550        0.00000446
     152         -0.155484        0.000000        0.00000295        0.00000774        0.50390059        0.00000346
     153         -0.041764        0.000000        0.30911623        0.01221688        0.00002825        0.03279301
     154         -0.030886        0.000000        0.19670823        0.11572567        0.00003234        0.09078561
     155         -0.023136        0.000000        0.11620275        0.21447368        0.00001973        0.10666414
     156         -0.015829        0.000000        0.22270304        0.09105299        0.00002927        0.08535658
     157         -0.011607        0.000000        0.12342833        0.19905246        0.00002143        0.10310986
     158         -0.006952        0.000000        0.16165341        0.16455980        0.00004337        0.09182824
     159         -0.002643        0.000000        0.11662008        0.03405189        0.00002082        0.28236077
     160          0.002724        0.000000        0.08827090        0.08226168        0.00001059        0.27319127
     161          0.006155        0.000000        0.13674710        0.21868574        0.00001634        0.07478381
     162          0.012000        0.000000        0.08861460        0.27417104        0.00001851        0.08680624
     163          0.020898        0.000000        0.04894202        0.07727724        0.00001092        0.33638180
     164          0.027555        0.000000        0.03878112        0.26478632        0.00001457        0.16352291
     165          0.056164        0.000000        0.16457631        0.11713263        0.00001367        0.13984335
     166          0.067303        0.000000        0.13428363        0.11424500        0.00000924        0.18266217
     167          0.070530        0.000000        0.12593680        0.13097911        0.00001292        0.17916263
     168          0.072244        0.000000        0.06613045        0.10400530        0.00000473        0.28133837
     169          0.074665        0.000000        0.15124180        0.12128664        0.00001194        0.15927919
     170          0.078471        0.000000        0.03396012        0.11528963        0.00001556        0.31507091
     171          0.085519        0.000000        0.06829553        0.16694381        0.00001643        0.22090279
     172          0.088041        0.000000        0.09549665        0.12503644        0.00001322        0.22455634
     173          0.096780        0.000000        0.02795090        0.25693644        0.00001819        0.18131513
     174          0.099086        0.000000        0.02838337        0.29153369        0.00002198        0.15206097
     175          0.101943        0.000000        0.02389362        0.32567629        0.00000797        0.11584857
     176          0.108418        0.000000        0.02172799        0.32287924        0.00002360        0.12120371
     177          0.173146        0.000000        0.03905122        0.19898275        0.00000519        0.22437910
     178          0.175799        0.000000        0.02111609        0.23967244        0.00003201        0.20467138
