# Projected DOS for atomic kind C at iteration step i = 0, E(Fermi) =    -0.418704 a.u.
#     MO Eigenvalue [a.u.]      Occupation                 s                py                pz                px
       1         -0.860189        2.000000        0.16022611        0.10724958        0.00003055        0.09861299
       2         -0.858269        2.000000        0.16250829        0.10314903        0.00003090        0.09953975
       3         -0.856113        2.000000        0.16170940        0.10572115        0.00000996        0.09894146
       4         -0.847005        2.000000        0.16434193        0.10225329        0.00000734        0.09380965
       5         -0.829285        2.000000        0.17287915        0.08431809        0.00002556        0.09155945
       6         -0.825951        2.000000        0.18107319        0.08630199        0.00001573        0.07992516
       7         -0.825660        2.000000        0.17480314        0.08856858        0.00000956        0.08418667
       8         -0.815129        2.000000        0.20109797        0.06916318        0.00001031        0.07367335
       9         -0.806217        2.000000        0.23452028        0.06635847        0.00004467        0.10728853
      10         -0.805083        2.000000        0.19279843        0.07878311        0.00003592        0.13659283
      11         -0.804339        2.000000        0.24358286        0.10920805        0.00001738        0.05013101
      12         -0.802062        2.000000        0.23566439        0.07897598        0.00002661        0.08844408
      13         -0.801365        2.000000        0.22789998        0.11736483        0.00002390        0.06178896
      14         -0.800504        2.000000        0.22229545        0.12323461        0.00002611        0.05385648
      15         -0.799858        2.000000        0.19321588        0.09586835        0.00002703        0.11736342
      16         -0.799029        2.000000        0.20694805        0.07562336        0.00001728        0.12002560
      17         -0.796719        2.000000        0.17900933        0.12196582        0.00003326        0.08411769
      18         -0.796337        2.000000        0.19228528        0.08065016        0.00003241        0.10744809
      19         -0.795803        2.000000        0.13405177        0.15860226        0.00004332        0.09371894
      20         -0.795210        2.000000        0.14893238        0.09101842        0.00003537        0.14231906
      21         -0.794263        2.000000        0.13518741        0.10742660        0.00003215        0.14016376
      22         -0.793201        2.000000        0.14663015        0.14055736        0.00002559        0.09693581
      23         -0.791162        2.000000        0.14784420        0.09178198        0.00001745        0.14010473
      24         -0.790216        2.000000        0.11988633        0.08411093        0.00005434        0.18251143
      25         -0.789971        2.000000        0.12119101        0.15954179        0.00003038        0.10539427
      26         -0.788833        2.000000        0.11235213        0.14343778        0.00001836        0.12606465
      27         -0.787454        2.000000        0.07430022        0.14139008        0.00001647        0.16726503
      28         -0.787085        2.000000        0.07479160        0.15061458        0.00001292        0.16289498
      29         -0.784832        2.000000        0.08954965        0.15912827        0.00001731        0.13267828
      30         -0.783623        2.000000        0.04554026        0.17984493        0.00002684        0.14918341
      31         -0.782369        2.000000        0.02450016        0.16964282        0.00000925        0.18043934
      32         -0.777651        2.000000        0.00828649        0.17925518        0.00001350        0.18409168
      33         -0.698706        2.000000        0.38191424        0.05999781        0.00002638        0.05056525
      34         -0.697082        2.000000        0.38144508        0.06304566        0.00002005        0.04845634
      35         -0.695082        2.000000        0.39390229        0.05215011        0.00002923        0.05384586
      36         -0.691027        2.000000        0.39263827        0.04999211        0.00002504        0.05590186
      37         -0.688648        2.000000        0.39950440        0.05733200        0.00002164        0.04546847
      38         -0.688277        2.000000        0.37548317        0.03480932        0.00001662        0.08264661
      39         -0.682195        2.000000        0.34477225        0.07557614        0.00002501        0.05932957
      40         -0.679801        2.000000        0.35177768        0.05649939        0.00001454        0.07687947
      41         -0.674938        2.000000        0.31537925        0.05914803        0.00004774        0.08610188
      42         -0.672186        2.000000        0.29130299        0.09736653        0.00002513        0.06430877
      43         -0.671030        2.000000        0.29486731        0.08293435        0.00002468        0.07646853
      44         -0.662117        2.000000        0.33035948        0.08461960        0.00003692        0.07981672
      45         -0.657717        2.000000        0.16196014        0.16950403        0.00003973        0.14910509
      46         -0.656844        2.000000        0.15829231        0.15322682        0.00005047        0.17171365
      47         -0.650048        2.000000        0.08244637        0.15290656        0.00012335        0.19359238
      48         -0.647574        2.000000        0.07450699        0.16795163        0.00004649        0.18525522
      49         -0.643742        2.000000        0.09170437        0.13335156        0.00005019        0.20383928
      50         -0.642586        2.000000        0.05653050        0.23201823        0.00016381        0.16129799
      51         -0.638404        2.000000        0.07577024        0.25605966        0.00013828        0.11309945
      52         -0.637952        2.000000        0.07871799        0.16640500        0.00012967        0.19853424
      53         -0.634381        2.000000        0.06349626        0.24159519        0.00007472        0.14177724
      54         -0.634067        2.000000        0.06175985        0.14632840        0.00004847        0.23266381
      55         -0.626517        2.000000        0.12508562        0.21686972        0.00014614        0.14248966
      56         -0.624981        2.000000        0.13301092        0.21937936        0.00007421        0.13386034
      57         -0.621499        2.000000        0.08884543        0.20733889        0.00062446        0.18303368
      58         -0.619000        2.000000        0.00026955        0.00028039        0.47365112        0.00044026
      59         -0.615317        2.000000        0.00010714        0.00015658        0.46663766        0.00020745
      60         -0.613055        2.000000        0.00016737        0.00023130        0.46685765        0.00031180
      61         -0.607388        2.000000        0.00004826        0.00006888        0.47463870        0.00008706
      62         -0.604965        2.000000        0.09477629        0.08976256        0.00030938        0.28449400
      63         -0.603860        2.000000        0.09229899        0.09014337        0.00041345        0.28543734
      64         -0.592785        2.000000        0.12333392        0.24859748        0.00019995        0.09854710
      65         -0.591310        2.000000        0.10539717        0.04684323        0.00048420        0.30519507
      66         -0.589476        2.000000        0.07192945        0.29778624        0.00070668        0.07199071
      67         -0.588039        2.000000        0.07877452        0.24848136        0.00036562        0.12600614
      68         -0.587619        2.000000        0.10349857        0.05466138        0.00811843        0.29074278
      69         -0.584757        2.000000        0.00202810        0.00125217        0.46391174        0.00401383
      70         -0.582438        2.000000        0.00023997        0.00014789        0.46952435        0.00044844
      71         -0.579739        2.000000        0.00035772        0.00034859        0.47437757        0.00086419
      72         -0.572490        2.000000        0.01766279        0.23049640        0.00071864        0.20748382
      73         -0.569393        2.000000        0.04584846        0.21775681        0.00042722        0.17731124
      74         -0.568434        2.000000        0.02989691        0.21094285        0.00056167        0.20879924
      75         -0.560338        2.000000        0.02128600        0.31496860        0.00299141        0.08418124
      76         -0.558755        2.000000        0.00499657        0.07234041        0.30850798        0.01624622
      77         -0.558594        2.000000        0.01717201        0.24973297        0.09013519        0.05451391
      78         -0.556916        2.000000        0.00035616        0.00262708        0.49613571        0.00075967
      79         -0.555976        2.000000        0.00021727        0.00175245        0.50383398        0.00064413
      80         -0.553751        2.000000        0.00048906        0.00268622        0.48408085        0.01504480
      81         -0.552181        2.000000        0.00868347        0.01215181        0.04075262        0.36520394
      82         -0.551606        2.000000        0.00012617        0.00028021        0.50733744        0.00074755
      83         -0.551588        2.000000        0.00044815        0.00078956        0.48932894        0.01632167
      84         -0.546822        2.000000        0.01460024        0.11711659        0.00109089        0.28066112
      85         -0.545366        2.000000        0.01576153        0.27068112        0.00153627        0.12390484
      86         -0.530920        2.000000        0.00029081        0.00007563        0.42993160        0.00017760
      87         -0.528174        2.000000        0.00009242        0.00010957        0.44261854        0.00012492
      88         -0.527274        2.000000        0.00088909        0.00036892        0.44563593        0.00026065
      89         -0.523538        2.000000        0.05984720        0.01317125        0.00488060        0.01413907
      90         -0.518718        2.000000        0.02269329        0.07758675        0.00087405        0.01017534
      91         -0.517156        2.000000        0.01847235        0.03468929        0.00029370        0.06296440
      92         -0.516583        2.000000        0.01739123        0.03419899        0.00498654        0.06427211
      93         -0.513255        2.000000        0.00024920        0.00024520        0.38325594        0.00031387
      94         -0.512459        2.000000        0.00019060        0.00027970        0.37379089        0.00083903
      95         -0.507756        2.000000        0.00010424        0.00007023        0.37508214        0.00012894
      96         -0.502667        2.000000        0.00032359        0.00014194        0.45580013        0.00058247
      97         -0.501887        2.000000        0.00032042        0.00098538        0.45244053        0.00061544
      98         -0.498784        2.000000        0.00646916        0.04322217        0.15106808        0.02041923
      99         -0.498722        2.000000        0.00386791        0.00871720        0.30452169        0.02440240
     100         -0.498131        2.000000        0.00263508        0.01280574        0.37305479        0.00672830
     101         -0.497407        2.000000        0.00892426        0.02574932        0.13000125        0.03689110
     102         -0.495330        2.000000        0.00010728        0.00009798        0.47495246        0.00028651
     103         -0.492006        2.000000        0.04327595        0.01525060        0.00152400        0.03476721
     104         -0.490780        2.000000        0.04394873        0.01455378        0.00300234        0.03533906
     105         -0.484392        2.000000        0.04936860        0.03608191        0.00043083        0.01135503
     106         -0.481309        2.000000        0.00854143        0.01678518        0.00067854        0.08468496
     107         -0.476130        2.000000        0.01420125        0.06267826        0.00026521        0.03016006
     108         -0.474796        2.000000        0.01399011        0.06831200        0.00067921        0.02593082
     109         -0.461247        2.000000        0.00004824        0.00010364        0.02423909        0.00008918
     110         -0.451888        2.000000        0.00814974        0.03973850        0.00025678        0.02311847
     111         -0.451059        2.000000        0.00647977        0.02743230        0.00014275        0.04473651
     112         -0.448814        2.000000        0.00529484        0.03187499        0.00616652        0.02339155
     113         -0.448325        2.000000        0.00121511        0.00644720        0.02921695        0.00526811
     114         -0.447253        2.000000        0.00014333        0.00024703        0.03309423        0.00020801
     115         -0.443746        2.000000        0.01716569        0.02372307        0.00416877        0.01948002
     116         -0.443253        2.000000        0.01777342        0.01631988        0.00305438        0.03092162
     117         -0.442885        2.000000        0.00492180        0.00450411        0.02396205        0.00740035
     118         -0.441837        2.000000        0.01746753        0.01881862        0.00007938        0.03241443
     119         -0.430291        2.000000        0.00058687        0.03226671        0.00010771        0.03204264
     120         -0.427628        2.000000        0.00041415        0.00125887        0.00164366        0.00051779
     121         -0.426336        2.000000        0.00009050        0.00016444        0.00086166        0.00023415
     122         -0.425345        2.000000        0.01263941        0.03618869        0.00018278        0.01085775
     123         -0.424353        2.000000        0.01302576        0.00746573        0.00011570        0.04353481
     124         -0.423895        2.000000        0.00043044        0.00071976        0.00128946        0.00054369
     125         -0.421136        2.000000        0.01355764        0.02128318        0.00016504        0.01533561
     126         -0.420478        2.000000        0.01326658        0.02190072        0.00007076        0.02003188
     127         -0.419893        2.000000        0.00103497        0.00163533        0.00120477        0.00108221
     128         -0.418704        2.000000        0.01351429        0.02315728        0.00004917        0.01780512
     129         -0.351497        0.000000        0.00016541        0.00002579        0.67253550        0.00008829
     130         -0.350116        0.000000        0.00008840        0.00003079        0.66823421        0.00007555
     131         -0.348146        0.000000        0.00017065        0.00004178        0.67135145        0.00007832
     132         -0.324788        0.000000        0.00019348        0.00003221        0.52874709        0.00005071
     133         -0.320550        0.000000        0.00016657        0.00004609        0.53429137        0.00004866
     134         -0.319158        0.000000        0.00013162        0.00002406        0.52883439        0.00004924
     135         -0.317402        0.000000        0.00008265        0.00004861        0.53321536        0.00003684
     136         -0.316832        0.000000        0.00009965        0.00002668        0.52587705        0.00001639
     137         -0.303952        0.000000        0.00017515        0.00002167        0.61642020        0.00005055
     138         -0.299878        0.000000        0.00023159        0.00004317        0.53330885        0.00003876
     139         -0.295417        0.000000        0.00010561        0.00004601        0.53063071        0.00001771
     140         -0.293656        0.000000        0.00009594        0.00002429        0.53374511        0.00003238
     141         -0.240257        0.000000        0.00018065        0.00003735        0.49058236        0.00001920
     142         -0.237062        0.000000        0.00019555        0.00003706        0.49092266        0.00003118
     143         -0.236944        0.000000        0.00013777        0.00003365        0.49271339        0.00002537
     144         -0.231921        0.000000        0.00008680        0.00001688        0.49103139        0.00003457
     145         -0.231677        0.000000        0.00006571        0.00004457        0.48986744        0.00001913
     146         -0.213003        0.000000        0.00014736        0.00002342        0.50531704        0.00001461
     147         -0.211481        0.000000        0.00011619        0.00001563        0.50417334        0.00002324
     148         -0.208462        0.000000        0.00008406        0.00002201        0.50433004        0.00002564
     149         -0.168847        0.000000        0.00021894        0.00002188        0.49404494        0.00001997
     150         -0.165143        0.000000        0.00017462        0.00001592        0.49314242        0.00001593
     151         -0.163817        0.000000        0.00007718        0.00001279        0.49409880        0.00001724
     152         -0.154818        0.000000        0.00012043        0.00000731        0.49606772        0.00001269
     153         -0.044986        0.000000        0.33670867        0.14481073        0.00014999        0.15970860
     154         -0.033420        0.000000        0.34387031        0.12347030        0.00013542        0.12316742
     155         -0.025198        0.000000        0.29296783        0.17247000        0.00011770        0.08805595
     156         -0.015108        0.000000        0.28510744        0.17596507        0.00006343        0.11730111
     157         -0.011892        0.000000        0.35897945        0.14933790        0.00010221        0.08817028
     158         -0.007368        0.000000        0.32117241        0.15349185        0.00007545        0.11113210
     159         -0.001672        0.000000        0.30335437        0.07742214        0.00012950        0.17616232
     160          0.004859        0.000000        0.28532872        0.13096199        0.00011597        0.14737782
     161          0.010071        0.000000        0.31415634        0.17431361        0.00008697        0.07948220
     162          0.015396        0.000000        0.31237731        0.08737088        0.00008624        0.15735151
     163          0.028100        0.000000        0.29545695        0.05420493        0.00018238        0.18966925
     164          0.035034        0.000000        0.28990333        0.13564759        0.00015894        0.10645503
     165          0.044559        0.000000        0.37382942        0.06223479        0.00007072        0.13900244
     166          0.059409        0.000000        0.34315887        0.06706221        0.00007837        0.15672801
     167          0.064443        0.000000        0.33321339        0.04944762        0.00008399        0.17175245
     168          0.065580        0.000000        0.38342183        0.04528719        0.00033371        0.12591911
     169          0.070032        0.000000        0.37371757        0.05917159        0.00040557        0.13080843
     170          0.073273        0.000000        0.35611356        0.02561233        0.00011182        0.16061123
     171          0.084707        0.000000        0.38906251        0.08075166        0.00052720        0.07810055
     172          0.088537        0.000000        0.37480413        0.05444724        0.00019252        0.13165398
     173          0.099255        0.000000        0.34382793        0.10018335        0.00015567        0.09061904
     174          0.101702        0.000000        0.38108755        0.11724230        0.00019873        0.02594671
     175          0.105335        0.000000        0.31642113        0.19250665        0.00002988        0.02777691
     176          0.115342        0.000000        0.30900056        0.20807776        0.00008791        0.01922480
     177          0.165229        0.000000        0.17690007        0.27109865        0.00001970        0.09489855
     178          0.172991        0.000000        0.20749157        0.18058237        0.00008225        0.14995387
