# Projected DOS for atomic kind N at iteration step i = 0, E(Fermi) =    -0.420791 a.u.
#     MO Eigenvalue [a.u.]      Occupation                 s                py                pz                px
       1         -0.859644        2.000000        0.62138451        0.00599210        0.00000011        0.00599331
       2         -0.858977        2.000000        0.62144871        0.00610963        0.00000006        0.00616749
       3         -0.858166        2.000000        0.62110189        0.00610550        0.00000014        0.00606084
       4         -0.854978        2.000000        0.62284148        0.00631109        0.00000023        0.00632718
       5         -0.823974        2.000000        0.64022979        0.00682243        0.00000014        0.00671810
       6         -0.822828        2.000000        0.64008590        0.00679078        0.00000033        0.00722951
       7         -0.822618        2.000000        0.64093483        0.00674369        0.00000011        0.00669508
       8         -0.818917        2.000000        0.64125461        0.00719140        0.00000005        0.00719950
       9         -0.803813        2.000000        0.53854872        0.02478673        0.00000066        0.03009083
      10         -0.803032        2.000000        0.54439624        0.03259247        0.00000038        0.01970588
      11         -0.802484        2.000000        0.53361262        0.02068365        0.00000067        0.03612673
      12         -0.802174        2.000000        0.53806197        0.02159767        0.00000056        0.03403473
      13         -0.801373        2.000000        0.52635815        0.03943995        0.00000045        0.02142200
      14         -0.801200        2.000000        0.54687913        0.03072722        0.00000051        0.01978585
      15         -0.800384        2.000000        0.53967091        0.02663957        0.00000029        0.02693940
      16         -0.800266        2.000000        0.54109632        0.02191382        0.00000055        0.03144532
      17         -0.795722        2.000000        0.60069430        0.00969118        0.00000044        0.01011481
      18         -0.795489        2.000000        0.60252623        0.00786169        0.00000058        0.01113810
      19         -0.795018        2.000000        0.60037775        0.01102644        0.00000053        0.00769784
      20         -0.794582        2.000000        0.59874527        0.00826517        0.00000063        0.01164264
      21         -0.794341        2.000000        0.59926034        0.01323553        0.00000072        0.00683743
      22         -0.793236        2.000000        0.61496786        0.00527665        0.00000061        0.00756209
      23         -0.791469        2.000000        0.59296101        0.00990313        0.00000038        0.00777184
      24         -0.791039        2.000000        0.59049298        0.01198958        0.00000076        0.00690202
      25         -0.790730        2.000000        0.59281471        0.00598138        0.00000047        0.01153006
      26         -0.789222        2.000000        0.59515336        0.00777878        0.00000059        0.01147576
      27         -0.788522        2.000000        0.59420800        0.00968380        0.00000045        0.00960635
      28         -0.788108        2.000000        0.59377132        0.01566445        0.00000039        0.00274661
      29         -0.785139        2.000000        0.60694620        0.00485751        0.00000073        0.01181507
      30         -0.784263        2.000000        0.61080797        0.00548716        0.00000051        0.00790308
      31         -0.783934        2.000000        0.61152937        0.00549741        0.00000032        0.00792111
      32         -0.778858        2.000000        0.62199067        0.00351770        0.00000050        0.00363694
      33         -0.697081        2.000000        0.01516367        0.25084775        0.00000269        0.24337671
      34         -0.696401        2.000000        0.01563727        0.26496011        0.00000196        0.22921873
      35         -0.694993        2.000000        0.00970943        0.36827281        0.00000275        0.12376710
      36         -0.690206        2.000000        0.02692147        0.14567277        0.00000222        0.33570157
      37         -0.689149        2.000000        0.01849864        0.17174283        0.00000208        0.30968088
      38         -0.688897        2.000000        0.01354275        0.20935748        0.00000209        0.27190441
      39         -0.681887        2.000000        0.04528230        0.37366818        0.00000531        0.09915888
      40         -0.681271        2.000000        0.04348302        0.10040539        0.00000394        0.37252515
      41         -0.675142        2.000000        0.05966509        0.28033965        0.00000946        0.20245531
      42         -0.673974        2.000000        0.07050101        0.26428653        0.00000542        0.21737655
      43         -0.673751        2.000000        0.06948318        0.25959619        0.00000294        0.22244632
      44         -0.661782        2.000000        0.02642960        0.24047247        0.00000369        0.23678026
      45         -0.656167        2.000000        0.01485877        0.31050532        0.00000542        0.18974892
      46         -0.655984        2.000000        0.01399587        0.19845434        0.00000622        0.30224269
      47         -0.649462        2.000000        0.05848505        0.27878083        0.00002985        0.23630011
      48         -0.648746        2.000000        0.05785403        0.29389200        0.00000521        0.22245245
      49         -0.645986        2.000000        0.06258974        0.08100618        0.00000499        0.42967355
      50         -0.643075        2.000000        0.02682733        0.21231939        0.00002200        0.30817089
      51         -0.638095        2.000000        0.04602527        0.27461084        0.00002337        0.23650923
      52         -0.637896        2.000000        0.04756472        0.23160933        0.00002685        0.27918737
      53         -0.636046        2.000000        0.03434426        0.25102026        0.00000982        0.26529198
      54         -0.635907        2.000000        0.03355072        0.25915483        0.00000667        0.25743131
      55         -0.625276        2.000000        0.01426103        0.43238719        0.00002712        0.06681903
      56         -0.624705        2.000000        0.01415885        0.43233159        0.00003247        0.06630848
      57         -0.621249        2.000000        0.01745066        0.24463772        0.00004847        0.25446184
      58         -0.618714        2.000000        0.00000489        0.00004383        0.52580506        0.00004044
      59         -0.614904        2.000000        0.00000646        0.00004898        0.53415157        0.00003970
      60         -0.614194        2.000000        0.00000770        0.00006050        0.53390161        0.00004956
      61         -0.612129        2.000000        0.00000208        0.00001052        0.53149932        0.00001108
      62         -0.603961        2.000000        0.02033337        0.11259392        0.00002541        0.39855353
      63         -0.603626        2.000000        0.02027045        0.11407017        0.00005152        0.39750939
      64         -0.591731        2.000000        0.02386636        0.42461571        0.00003076        0.07995770
      65         -0.589558        2.000000        0.02232726        0.01706206        0.00003705        0.50422955
      66         -0.588344        2.000000        0.02210082        0.09939992        0.00024975        0.42409930
      67         -0.588060        2.000000        0.01591655        0.32255845        0.00014291        0.20966449
      68         -0.587706        2.000000        0.02251383        0.33972989        0.00005744        0.19456497
      69         -0.582082        2.000000        0.00001700        0.00007001        0.52514493        0.00016106
      70         -0.581179        2.000000        0.00000426        0.00002053        0.52569461        0.00005146
      71         -0.580143        2.000000        0.00001140        0.00006140        0.52282292        0.00014825
      72         -0.570851        2.000000        0.00124844        0.27996827        0.00008964        0.25847395
      73         -0.568507        2.000000        0.01553096        0.33181099        0.00004930        0.20915814
      74         -0.568283        2.000000        0.01601178        0.32552680        0.00009335        0.21590746
      75         -0.558779        2.000000        0.01437061        0.36778603        0.08498973        0.11833596
      76         -0.558757        2.000000        0.00219336        0.05910529        0.52981965        0.01877683
      77         -0.558067        2.000000        0.01737904        0.42255173        0.00087454        0.14105791
      78         -0.555517        2.000000        0.00002958        0.00030241        0.49388345        0.00018615
      79         -0.554942        2.000000        0.00001479        0.00033654        0.49335498        0.00014238
      80         -0.553981        2.000000        0.00003886        0.00037027        0.49079908        0.00111024
      81         -0.552579        2.000000        0.00000781        0.00006935        0.48776821        0.00014893
      82         -0.552330        2.000000        0.00001001        0.00004163        0.48698243        0.00021349
      83         -0.551135        2.000000        0.01499140        0.03662350        0.00114617        0.52874585
      84         -0.546079        2.000000        0.01545209        0.22691577        0.00012618        0.34549659
      85         -0.545690        2.000000        0.01573161        0.33973286        0.00023850        0.23283878
      86         -0.530046        2.000000        0.00006236        0.00014896        0.56851996        0.00012201
      87         -0.527932        2.000000        0.00002763        0.00008055        0.55938018        0.00007648
      88         -0.527545        2.000000        0.00016652        0.00039015        0.55660355        0.00037933
      89         -0.524088        2.000000        0.15277873        0.38355160        0.00069736        0.37456152
      90         -0.519120        2.000000        0.13215021        0.26586403        0.00015454        0.49070900
      91         -0.517583        2.000000        0.12751705        0.44526712        0.00007062        0.31097024
      92         -0.517318        2.000000        0.12752134        0.44127113        0.00058411        0.31384649
      93         -0.512683        2.000000        0.00004871        0.00011839        0.61469948        0.00009881
      94         -0.512411        2.000000        0.00009520        0.00033230        0.61619125        0.00025980
      95         -0.510323        2.000000        0.00003997        0.00009077        0.61613340        0.00009986
      96         -0.502035        2.000000        0.00026764        0.00078982        0.53891935        0.00055312
      97         -0.501850        2.000000        0.00025071        0.00060186        0.53823944        0.00074933
      98         -0.498916        2.000000        0.12430420        0.38383748        0.00371026        0.38265882
      99         -0.498572        2.000000        0.12009306        0.36847575        0.02000339        0.37533034
     100         -0.498062        2.000000        0.00217241        0.00564752        0.51570953        0.00772983
     101         -0.497720        2.000000        0.00311200        0.01123227        0.50797600        0.00852844
     102         -0.496855        2.000000        0.00007340        0.00017996        0.52168306        0.00022061
     103         -0.492413        2.000000        0.13854050        0.35673345        0.00019451        0.41060468
     104         -0.491973        2.000000        0.13783287        0.35587725        0.00049734        0.41117427
     105         -0.484317        2.000000        0.13836842        0.42052407        0.00009080        0.34415702
     106         -0.482358        2.000000        0.11180519        0.60844253        0.00009942        0.16753022
     107         -0.476695        2.000000        0.11871812        0.25075606        0.00007629        0.52066977
     108         -0.476156        2.000000        0.11905570        0.25020154        0.00010204        0.52044093
     109         -0.461024        2.000000        0.00002756        0.00010773        0.97723239        0.00008792
     110         -0.451297        2.000000        0.08524502        0.42647189        0.00031399        0.41369159
     111         -0.451117        2.000000        0.09257096        0.28871712        0.00026446        0.54068999
     112         -0.450319        2.000000        0.08370046        0.43035800        0.00047918        0.41097315
     113         -0.446811        2.000000        0.00007695        0.00046432        0.96681299        0.00048030
     114         -0.446253        2.000000        0.00006541        0.00034185        0.96711009        0.00037945
     115         -0.444933        2.000000        0.02646366        0.28727301        0.60456040        0.03759118
     116         -0.444750        2.000000        0.04362241        0.48148012        0.36351768        0.05869097
     117         -0.443415        2.000000        0.07984843        0.33107953        0.00166751        0.51369434
     118         -0.443102        2.000000        0.07903592        0.33966275        0.00049684        0.50751200
     119         -0.431275        2.000000        0.08652990        0.42576144        0.00066255        0.42102941
     120         -0.426612        2.000000        0.00047501        0.00524920        0.99106107        0.00182687
     121         -0.425998        2.000000        0.00010219        0.00065750        0.99773147        0.00071759
     122         -0.425295        2.000000        0.03063049        0.39685009        0.43911535        0.09649900
     123         -0.425155        2.000000        0.02757678        0.19962770        0.48925052        0.25008252
     124         -0.424968        2.000000        0.04979477        0.24525673        0.07466691        0.57053034
     125         -0.422519        2.000000        0.05659739        0.53879477        0.00380675        0.34644971
     126         -0.422269        2.000000        0.05557821        0.54306768        0.00520516        0.34073197
     127         -0.421145        2.000000        0.05629384        0.27121230        0.01753658        0.60001138
     128         -0.420791        2.000000        0.00117914        0.00716031        0.97814925        0.01221015
     129         -0.349114        0.000000        0.00000132        0.00001581        0.32537755        0.00001340
     130         -0.348555        0.000000        0.00000237        0.00000413        0.32537679        0.00000604
     131         -0.347852        0.000000        0.00000220        0.00000798        0.32514381        0.00001322
     132         -0.321947        0.000000        0.00000181        0.00000692        0.46894328        0.00001132
     133         -0.320514        0.000000        0.00000241        0.00000587        0.46249409        0.00000560
     134         -0.319803        0.000000        0.00000335        0.00001302        0.47216593        0.00000964
     135         -0.319185        0.000000        0.00000175        0.00000780        0.46922394        0.00000569
     136         -0.318010        0.000000        0.00000244        0.00001086        0.48030699        0.00000713
     137         -0.303689        0.000000        0.00000249        0.00000311        0.37823987        0.00000472
     138         -0.299732        0.000000        0.00000365        0.00000735        0.46579509        0.00000679
     139         -0.297083        0.000000        0.00000225        0.00000524        0.47127189        0.00000372
     140         -0.296763        0.000000        0.00000133        0.00000488        0.47010535        0.00000597
     141         -0.237892        0.000000        0.00000279        0.00000660        0.50830306        0.00000348
     142         -0.237124        0.000000        0.00000281        0.00000666        0.50631787        0.00000267
     143         -0.236386        0.000000        0.00000161        0.00000171        0.51032655        0.00000962
     144         -0.234651        0.000000        0.00000296        0.00000605        0.51097013        0.00000296
     145         -0.234562        0.000000        0.00000118        0.00000188        0.51056236        0.00000409
     146         -0.212443        0.000000        0.00000180        0.00000431        0.49423871        0.00000237
     147         -0.211704        0.000000        0.00000187        0.00000248        0.49577393        0.00000424
     148         -0.210571        0.000000        0.00000091        0.00000295        0.49557415        0.00000404
     149         -0.167491        0.000000        0.00000161        0.00000255        0.50621870        0.00000222
     150         -0.166284        0.000000        0.00000204        0.00000199        0.50648918        0.00000129
     151         -0.165773        0.000000        0.00000155        0.00000246        0.50629405        0.00000101
     152         -0.155968        0.000000        0.00000093        0.00000198        0.50396229        0.00000076
     153         -0.039866        0.000000        0.32793483        0.00925995        0.00000745        0.01300274
     154         -0.027191        0.000000        0.20424268        0.12899166        0.00000734        0.06677473
     155         -0.022061        0.000000        0.16352445        0.16530456        0.00000494        0.09113904
     156         -0.018766        0.000000        0.20825686        0.08325941        0.00000704        0.11157722
     157         -0.008226        0.000000        0.12825240        0.19657696        0.00000499        0.09995272
     158         -0.005669        0.000000        0.13255416        0.19745540        0.00000951        0.09668205
     159         -0.004110        0.000000        0.08653112        0.02543181        0.00000553        0.32767059
     160         -0.000031        0.000000        0.13776484        0.03650493        0.00000383        0.25338346
     161          0.003046        0.000000        0.13947624        0.24814855        0.00000355        0.04117653
     162          0.012027        0.000000        0.04455713        0.31706955        0.00000560        0.10019001
     163          0.015373        0.000000        0.03564091        0.04882932        0.00000307        0.38075922
     164          0.020747        0.000000        0.03368315        0.28366001        0.00000406        0.14902168
     165          0.067298        0.000000        0.18358447        0.11717060        0.00000439        0.11642318
     166          0.074535        0.000000        0.17662438        0.12156100        0.00000376        0.12521863
     167          0.076283        0.000000        0.15698821        0.12676413        0.00000255        0.14502213
     168          0.079032        0.000000        0.17485087        0.11571643        0.00000428        0.13645154
     169          0.080783        0.000000        0.03560387        0.10800056        0.00000149        0.31800040
     170          0.084165        0.000000        0.02486352        0.13904006        0.00000392        0.30145495
     171          0.088336        0.000000        0.04426494        0.12191338        0.00000253        0.29447456
     172          0.088878        0.000000        0.04340502        0.16098341        0.00000460        0.25823530
     173          0.093920        0.000000        0.02493765        0.28321536        0.00000507        0.15796398
     174          0.095910        0.000000        0.02922565        0.29015591        0.00000692        0.14906195
     175          0.098144        0.000000        0.02133895        0.31940171        0.00000272        0.12775557
     176          0.101297        0.000000        0.02025548        0.31812901        0.00000609        0.13039713
     177          0.179204        0.000000        0.01596238        0.24169867        0.00000738        0.21349216
     178          0.179512        0.000000        0.02300925        0.21617291        0.00000250        0.22389809
