# Projected DOS for atomic kind C at iteration step i = 0, E(Fermi) =    -0.420166 a.u.
#     MO Eigenvalue [a.u.]      Occupation                 s                py                pz                px
       1         -0.859950        2.000000        0.16018699        0.10602104        0.00001422        0.10010574
       2         -0.858628        2.000000        0.16172465        0.10320608        0.00001344        0.10073070
       3         -0.857076        2.000000        0.16123804        0.10497463        0.00000485        0.10029728
       4         -0.850811        2.000000        0.16281007        0.10267167        0.00000376        0.09679711
       5         -0.826571        2.000000        0.17623213        0.08301318        0.00001152        0.08810526
       6         -0.824280        2.000000        0.18268168        0.08422647        0.00000677        0.07956165
       7         -0.824030        2.000000        0.17777204        0.08583642        0.00000452        0.08285813
       8         -0.816731        2.000000        0.19607620        0.07233683        0.00000444        0.07550200
       9         -0.805029        2.000000        0.24073938        0.06497366        0.00002018        0.10205036
      10         -0.803854        2.000000        0.19940711        0.09885452        0.00001952        0.10896148
      11         -0.803567        2.000000        0.24583024        0.08252510        0.00000827        0.07656255
      12         -0.802064        2.000000        0.24017257        0.06904163        0.00001252        0.09541709
      13         -0.801334        2.000000        0.22893862        0.12436308        0.00001025        0.05605237
      14         -0.800792        2.000000        0.22333707        0.11408903        0.00001319        0.06359977
      15         -0.800042        2.000000        0.19865456        0.10303389        0.00001057        0.10549154
      16         -0.799602        2.000000        0.20989313        0.07608129        0.00000731        0.11855391
      17         -0.796233        2.000000        0.19153765        0.10800487        0.00001440        0.08219760
      18         -0.795985        2.000000        0.18587865        0.09498016        0.00001646        0.09830575
      19         -0.795353        2.000000        0.13874380        0.15476233        0.00001446        0.09002150
      20         -0.794895        2.000000        0.14204572        0.09638703        0.00001384        0.14363407
      21         -0.794286        2.000000        0.14975626        0.10832070        0.00001837        0.12278565
      22         -0.793024        2.000000        0.14499914        0.13895867        0.00001227        0.09599845
      23         -0.791538        2.000000        0.13814623        0.09000927        0.00000694        0.15521435
      24         -0.790652        2.000000        0.11709905        0.09101462        0.00001974        0.18010433
      25         -0.790406        2.000000        0.11377805        0.16617467        0.00001401        0.10821534
      26         -0.789175        2.000000        0.10922030        0.14174125        0.00000816        0.13302775
      27         -0.788003        2.000000        0.10401213        0.13691594        0.00000808        0.14531972
      28         -0.787610        2.000000        0.06044866        0.13494815        0.00000876        0.19112903
      29         -0.785184        2.000000        0.06606930        0.17218198        0.00000783        0.14112692
      30         -0.783999        2.000000        0.03784428        0.18534240        0.00001080        0.15213360
      31         -0.783234        2.000000        0.02042693        0.17602773        0.00000418        0.17819741
      32         -0.778374        2.000000        0.00408674        0.18264752        0.00000633        0.18452537
      33         -0.697816        2.000000        0.38072470        0.06064450        0.00001151        0.05036278
      34         -0.696594        2.000000        0.38001861        0.06309600        0.00000964        0.04843999
      35         -0.694911        2.000000        0.39533153        0.05354957        0.00001063        0.05012545
      36         -0.690562        2.000000        0.38923722        0.04362702        0.00001227        0.06483084
      37         -0.688806        2.000000        0.39069424        0.04392707        0.00000988        0.06425168
      38         -0.688634        2.000000        0.39363170        0.05029913        0.00000745        0.05540510
      39         -0.681937        2.000000        0.34666650        0.07749487        0.00001147        0.05674677
      40         -0.680453        2.000000        0.35226471        0.05443361        0.00000686        0.07813382
      41         -0.675067        2.000000        0.31307673        0.05716498        0.00002233        0.08857231
      42         -0.673011        2.000000        0.28868338        0.09638258        0.00001138        0.06483423
      43         -0.672373        2.000000        0.29240949        0.08529341        0.00001170        0.07367382
      44         -0.661962        2.000000        0.33351490        0.08226567        0.00001724        0.07999643
      45         -0.656848        2.000000        0.15934987        0.17248189        0.00001664        0.15104675
      46         -0.656370        2.000000        0.15574021        0.15509998        0.00002283        0.17338417
      47         -0.649755        2.000000        0.07850872        0.15629238        0.00005592        0.19289261
      48         -0.648117        2.000000        0.07112664        0.16991209        0.00002254        0.18557946
      49         -0.644779        2.000000        0.09490690        0.11102215        0.00002029        0.22058801
      50         -0.642834        2.000000        0.05037420        0.24833077        0.00007335        0.15348066
      51         -0.638236        2.000000        0.08077292        0.26230384        0.00006481        0.10119383
      52         -0.637911        2.000000        0.08314802        0.13953971        0.00006761        0.22007856
      53         -0.635283        2.000000        0.06146593        0.19425976        0.00002476        0.19153571
      54         -0.635159        2.000000        0.06200372        0.21017663        0.00002891        0.17338304
      55         -0.625888        2.000000        0.13024341        0.21688450        0.00007426        0.13844956
      56         -0.624792        2.000000        0.13499401        0.21903806        0.00004594        0.13285850
      57         -0.621415        2.000000        0.09230423        0.20788865        0.00021734        0.18140650
      58         -0.618782        2.000000        0.00010726        0.00009849        0.47394657        0.00016698
      59         -0.615129        2.000000        0.00004880        0.00007203        0.46626026        0.00008979
      60         -0.613616        2.000000        0.00008112        0.00011437        0.46655024        0.00013780
      61         -0.609609        2.000000        0.00001942        0.00003444        0.47184806        0.00003611
      62         -0.604419        2.000000        0.09381688        0.08895917        0.00011743        0.28600369
      63         -0.603689        2.000000        0.09214626        0.09036181        0.00017381        0.28547550
      64         -0.592218        2.000000        0.13005634        0.25058450        0.00008854        0.09056035
      65         -0.590460        2.000000        0.10615687        0.04483273        0.00020023        0.30583559
      66         -0.588775        2.000000        0.07073693        0.27860196        0.00037110        0.09520930
      67         -0.587884        2.000000        0.07879825        0.20572667        0.00039486        0.16833052
      68         -0.587846        2.000000        0.09912555        0.12127622        0.00142044        0.23079700
      69         -0.583386        2.000000        0.00042031        0.00031280        0.47169102        0.00067776
      70         -0.581726        2.000000        0.00009173        0.00006467        0.47203863        0.00017127
      71         -0.579767        2.000000        0.00015670        0.00016402        0.47624353        0.00036923
      72         -0.571579        2.000000        0.01136146        0.23055892        0.00033830        0.21562840
      73         -0.568896        2.000000        0.04353596        0.21588314        0.00018057        0.18284906
      74         -0.568428        2.000000        0.03585587        0.21016771        0.00027383        0.20038540
      75         -0.559544        2.000000        0.02150916        0.31815009        0.00149707        0.08007750
      76         -0.558637        2.000000        0.00023294        0.00300124        0.38496400        0.00082811
      77         -0.558250        2.000000        0.02195279        0.31976331        0.00565395        0.07076423
      78         -0.556272        2.000000        0.00016170        0.00111466        0.50209776        0.00033551
      79         -0.555422        2.000000        0.00010140        0.00087304        0.50545434        0.00035366
      80         -0.553852        2.000000        0.00014835        0.00112689        0.50078274        0.00383758
      81         -0.552167        2.000000        0.00004177        0.00010365        0.50963582        0.00026476
      82         -0.551997        2.000000        0.00024240        0.00026037        0.49994407        0.00928259
      83         -0.551585        2.000000        0.00917308        0.00870204        0.01643574        0.38748540
      84         -0.546455        2.000000        0.01459961        0.12186122        0.00046598        0.27587165
      85         -0.545570        2.000000        0.01545207        0.26960524        0.00073659        0.12588506
      86         -0.530478        2.000000        0.00014774        0.00003918        0.43042042        0.00008330
      87         -0.528045        2.000000        0.00004018        0.00005022        0.44169892        0.00006352
      88         -0.527354        2.000000        0.00041951        0.00016308        0.44459900        0.00011973
      89         -0.523864        2.000000        0.06048681        0.01314911        0.00240032        0.01389449
      90         -0.518943        2.000000        0.02257412        0.07945816        0.00034349        0.00874047
      91         -0.517415        2.000000        0.01837566        0.03393827        0.00013310        0.06380681
      92         -0.516959        2.000000        0.01750401        0.03401628        0.00174931        0.06489611
      93         -0.512984        2.000000        0.00009995        0.00008024        0.38405778        0.00011388
      94         -0.512431        2.000000        0.00007261        0.00009730        0.37885337        0.00030157
      95         -0.509004        2.000000        0.00004632        0.00004222        0.37856522        0.00005292
      96         -0.502357        2.000000        0.00017307        0.00007213        0.45752061        0.00036339
      97         -0.501880        2.000000        0.00014707        0.00045238        0.45725254        0.00027719
      98         -0.498895        2.000000        0.00926299        0.04817645        0.01098118        0.04311716
      99         -0.498511        2.000000        0.00281236        0.00917518        0.35544470        0.01363750
     100         -0.498199        2.000000        0.00481633        0.02460198        0.25351162        0.01765772
     101         -0.497755        2.000000        0.00335105        0.00963422        0.33680947        0.01644414
     102         -0.496097        2.000000        0.00004646        0.00004742        0.47635021        0.00012846
     103         -0.492289        2.000000        0.04509142        0.01462138        0.00068001        0.03379185
     104         -0.491422        2.000000        0.04486446        0.01458275        0.00156391        0.03461127
     105         -0.484394        2.000000        0.05080325        0.03708192        0.00017897        0.00898816
     106         -0.481851        2.000000        0.00745524        0.01293004        0.00031084        0.09067517
     107         -0.476514        2.000000        0.01401542        0.06702371        0.00014240        0.02740040
     108         -0.475512        2.000000        0.01391042        0.06965054        0.00030791        0.02570570
     109         -0.461135        2.000000        0.00002086        0.00004553        0.02313176        0.00003935
     110         -0.451618        2.000000        0.00770949        0.03992372        0.00008937        0.02475167
     111         -0.451158        2.000000        0.00622104        0.02843322        0.00005687        0.04385304
     112         -0.449556        2.000000        0.00648124        0.03854701        0.00019099        0.02849423
     113         -0.447635        2.000000        0.00005836        0.00017674        0.03350476        0.00019259
     114         -0.446775        2.000000        0.00007206        0.00009344        0.03251320        0.00008782
     115         -0.444300        2.000000        0.01654868        0.02421873        0.00516544        0.01565423
     116         -0.443846        2.000000        0.00419372        0.00578121        0.02427853        0.00429513
     117         -0.443339        2.000000        0.01932820        0.01564758        0.00146998        0.03523471
     118         -0.442577        2.000000        0.01844859        0.01771388        0.00006151        0.03487157
     119         -0.430852        2.000000        0.00026908        0.03254724        0.00005055        0.03271942
     120         -0.427192        2.000000        0.00027512        0.00081846        0.00122387        0.00028898
     121         -0.426177        2.000000        0.00005609        0.00008925        0.00073647        0.00013188
     122         -0.425343        2.000000        0.01281589        0.03820069        0.00009993        0.00965511
     123         -0.424738        2.000000        0.01283221        0.00690734        0.00005608        0.04359807
     124         -0.424510        2.000000        0.00072291        0.00116618        0.00093403        0.00110831
     125         -0.421885        2.000000        0.01440890        0.02301569        0.00004691        0.01555185
     126         -0.421348        2.000000        0.01362620        0.02351726        0.00004095        0.01843520
     127         -0.420425        2.000000        0.00063529        0.00104730        0.00058871        0.00074841
     128         -0.420166        2.000000        0.01365596        0.01962383        0.00002442        0.02075342
     129         -0.350358        0.000000        0.00007092        0.00001127        0.67391197        0.00003834
     130         -0.349374        0.000000        0.00004251        0.00001459        0.67184569        0.00003332
     131         -0.347980        0.000000        0.00007708        0.00001811        0.67339193        0.00003427
     132         -0.323432        0.000000        0.00009018        0.00001525        0.52966063        0.00002291
     133         -0.320479        0.000000        0.00007012        0.00001958        0.53568086        0.00002167
     134         -0.319396        0.000000        0.00005911        0.00001368        0.52890998        0.00001992
     135         -0.318173        0.000000        0.00003543        0.00002014        0.53225891        0.00001617
     136         -0.317467        0.000000        0.00004574        0.00001233        0.52240682        0.00000948
     137         -0.303920        0.000000        0.00007565        0.00000988        0.61928100        0.00002190
     138         -0.299839        0.000000        0.00010824        0.00002016        0.53340334        0.00001841
     139         -0.296252        0.000000        0.00004715        0.00002151        0.52970839        0.00000778
     140         -0.295212        0.000000        0.00004535        0.00001096        0.53229692        0.00001359
     141         -0.239100        0.000000        0.00008292        0.00001789        0.49086945        0.00000886
     142         -0.237070        0.000000        0.00005838        0.00001840        0.49370541        0.00000964
     143         -0.236707        0.000000        0.00008686        0.00001358        0.48965774        0.00001621
     144         -0.233175        0.000000        0.00004442        0.00001013        0.48971559        0.00001573
     145         -0.233089        0.000000        0.00002640        0.00001798        0.49023627        0.00000894
     146         -0.212801        0.000000        0.00006275        0.00001096        0.50550074        0.00000660
     147         -0.211711        0.000000        0.00005445        0.00000705        0.50417263        0.00000995
     148         -0.209512        0.000000        0.00003895        0.00001030        0.50436295        0.00001137
     149         -0.168228        0.000000        0.00009664        0.00000952        0.49388479        0.00000906
     150         -0.165760        0.000000        0.00008045        0.00000684        0.49329026        0.00000721
     151         -0.164804        0.000000        0.00003536        0.00000596        0.49384597        0.00000785
     152         -0.155484        0.000000        0.00005751        0.00000334        0.49601899        0.00000542
     153         -0.041764        0.000000        0.36554804        0.14136395        0.00006681        0.13886685
     154         -0.030886        0.000000        0.33554338        0.13085998        0.00006346        0.13028137
     155         -0.023136        0.000000        0.31181783        0.15731365        0.00006129        0.09344688
     156         -0.015829        0.000000        0.35428361        0.14459211        0.00002696        0.10195536
     157         -0.011607        0.000000        0.27681999        0.18495028        0.00004214        0.11257555
     158         -0.006952        0.000000        0.30809845        0.16180739        0.00003062        0.11197873
     159         -0.002643        0.000000        0.29121010        0.06131048        0.00007622        0.21434975
     160          0.002724        0.000000        0.27979239        0.11293076        0.00004396        0.16349850
     161          0.006155        0.000000        0.30579294        0.18991412        0.00004025        0.07401957
     162          0.012000        0.000000        0.29033232        0.12715434        0.00004061        0.13286230
     163          0.020898        0.000000        0.27668597        0.04801864        0.00006823        0.21261519
     164          0.027555        0.000000        0.27460203        0.15405843        0.00006397        0.10417065
     165          0.056164        0.000000        0.39554103        0.06415607        0.00003092        0.11870596
     166          0.067303        0.000000        0.37549245        0.05908648        0.00005232        0.13416868
     167          0.070530        0.000000        0.39637179        0.05882832        0.00014621        0.10856213
     168          0.072244        0.000000        0.34089031        0.03570002        0.00003296        0.17189794
     169          0.074665        0.000000        0.40665392        0.05713486        0.00014770        0.10424401
     170          0.078472        0.000000        0.33636033        0.02378517        0.00009261        0.17542567
     171          0.085519        0.000000        0.36903667        0.07363753        0.00018424        0.10098302
     172          0.088041        0.000000        0.36938946        0.05073358        0.00010232        0.13467199
     173          0.096780        0.000000        0.34510873        0.11623824        0.00007627        0.07235610
     174          0.099086        0.000000        0.36535293        0.13577322        0.00009195        0.02678188
     175          0.101943        0.000000        0.32590756        0.18576600        0.00001767        0.02288233
     176          0.108418        0.000000        0.32014298        0.19505926        0.00004214        0.01892109
     177          0.173146        0.000000        0.19528590        0.26227324        0.00000941        0.08001322
     178          0.175799        0.000000        0.21879306        0.21569962        0.00004468        0.09997066
