# Projected DOS for atomic kind N at iteration step i = 0, E(Fermi) =    -0.420791 a.u.
#     MO Eigenvalue [a.u.]      Occupation                 s                py                pz                px
       1         -0.859644        2.000000        0.62138453        0.00599210        0.00000011        0.00599331
       2         -0.858977        2.000000        0.62144872        0.00610963        0.00000006        0.00616749
       3         -0.858166        2.000000        0.62110188        0.00610550        0.00000014        0.00606085
       4         -0.854978        2.000000        0.62284148        0.00631109        0.00000023        0.00632719
       5         -0.823974        2.000000        0.64022979        0.00682244        0.00000014        0.00671811
       6         -0.822828        2.000000        0.64008588        0.00679078        0.00000033        0.00722952
       7         -0.822618        2.000000        0.64093485        0.00674369        0.00000011        0.00669508
       8         -0.818917        2.000000        0.64125459        0.00719140        0.00000005        0.00719950
       9         -0.803813        2.000000        0.53854875        0.02478674        0.00000066        0.03009082
      10         -0.803032        2.000000        0.54439635        0.03259248        0.00000038        0.01970583
      11         -0.802484        2.000000        0.53361270        0.02068364        0.00000067        0.03612672
      12         -0.802174        2.000000        0.53806194        0.02159769        0.00000056        0.03403474
      13         -0.801373        2.000000        0.52635833        0.03943992        0.00000045        0.02142195
      14         -0.801200        2.000000        0.54687925        0.03072727        0.00000051        0.01978573
      15         -0.800384        2.000000        0.53967084        0.02663953        0.00000029        0.02693946
      16         -0.800266        2.000000        0.54109635        0.02191374        0.00000055        0.03144541
      17         -0.795722        2.000000        0.60069418        0.00969120        0.00000044        0.01011487
      18         -0.795489        2.000000        0.60252643        0.00786172        0.00000058        0.01113798
      19         -0.795018        2.000000        0.60037782        0.01102639        0.00000053        0.00769787
      20         -0.794582        2.000000        0.59874533        0.00826530        0.00000063        0.01164249
      21         -0.794341        2.000000        0.59926029        0.01323538        0.00000072        0.00683764
      22         -0.793236        2.000000        0.61496775        0.00527667        0.00000061        0.00756212
      23         -0.791469        2.000000        0.59296113        0.00990321        0.00000038        0.00777174
      24         -0.791039        2.000000        0.59049309        0.01198939        0.00000076        0.00690220
      25         -0.790730        2.000000        0.59281474        0.00598154        0.00000047        0.01152990
      26         -0.789222        2.000000        0.59515339        0.00777876        0.00000059        0.01147578
      27         -0.788522        2.000000        0.59420807        0.00968376        0.00000045        0.00960636
      28         -0.788108        2.000000        0.59377134        0.01566445        0.00000039        0.00274661
      29         -0.785139        2.000000        0.60694621        0.00485750        0.00000073        0.01181508
      30         -0.784263        2.000000        0.61080800        0.00548718        0.00000051        0.00790303
      31         -0.783934        2.000000        0.61152939        0.00549739        0.00000032        0.00792115
      32         -0.778858        2.000000        0.62199068        0.00351770        0.00000050        0.00363694
      33         -0.697081        2.000000        0.01516368        0.25084759        0.00000269        0.24337689
      34         -0.696401        2.000000        0.01563727        0.26496042        0.00000196        0.22921844
      35         -0.694993        2.000000        0.00970940        0.36827252        0.00000275        0.12376740
      36         -0.690206        2.000000        0.02692153        0.14567249        0.00000222        0.33570189
      37         -0.689149        2.000000        0.01849853        0.17174265        0.00000208        0.30968107
      38         -0.688897        2.000000        0.01354278        0.20935816        0.00000209        0.27190376
      39         -0.681887        2.000000        0.04528230        0.37366848        0.00000531        0.09915859
      40         -0.681271        2.000000        0.04348300        0.10040513        0.00000394        0.37252543
      41         -0.675142        2.000000        0.05966504        0.28033963        0.00000946        0.20245536
      42         -0.673974        2.000000        0.07050099        0.26428652        0.00000542        0.21737658
      43         -0.673751        2.000000        0.06948317        0.25959614        0.00000294        0.22244640
      44         -0.661782        2.000000        0.02642960        0.24047244        0.00000369        0.23678032
      45         -0.656167        2.000000        0.01485876        0.31050545        0.00000542        0.18974881
      46         -0.655984        2.000000        0.01399586        0.19845429        0.00000622        0.30224277
      47         -0.649462        2.000000        0.05848505        0.27878045        0.00002985        0.23630051
      48         -0.648746        2.000000        0.05785402        0.29389186        0.00000521        0.22245260
      49         -0.645986        2.000000        0.06258973        0.08100668        0.00000499        0.42967310
      50         -0.643075        2.000000        0.02682735        0.21231953        0.00002200        0.30817076
      51         -0.638095        2.000000        0.04602526        0.27461093        0.00002337        0.23650918
      52         -0.637896        2.000000        0.04756467        0.23160948        0.00002685        0.27918726
      53         -0.636046        2.000000        0.03434426        0.25102012        0.00000982        0.26529213
      54         -0.635907        2.000000        0.03355081        0.25915473        0.00000667        0.25743142
      55         -0.625276        2.000000        0.01426102        0.43238712        0.00002712        0.06681913
      56         -0.624705        2.000000        0.01415886        0.43233164        0.00003247        0.06630845
      57         -0.621249        2.000000        0.01745065        0.24463777        0.00004847        0.25446182
      58         -0.618714        2.000000        0.00000489        0.00004383        0.52580511        0.00004045
      59         -0.614904        2.000000        0.00000646        0.00004898        0.53415162        0.00003970
      60         -0.614194        2.000000        0.00000770        0.00006050        0.53390159        0.00004956
      61         -0.612129        2.000000        0.00000208        0.00001052        0.53149932        0.00001108
      62         -0.603961        2.000000        0.02033338        0.11259395        0.00002541        0.39855352
      63         -0.603626        2.000000        0.02027045        0.11407023        0.00005152        0.39750933
      64         -0.591731        2.000000        0.02386638        0.42461555        0.00003076        0.07995785
      65         -0.589558        2.000000        0.02232726        0.01706204        0.00003705        0.50422961
      66         -0.588344        2.000000        0.02210074        0.09940674        0.00024975        0.42409276
      67         -0.588060        2.000000        0.01591658        0.32255253        0.00014291        0.20967019
      68         -0.587706        2.000000        0.02251387        0.33972918        0.00005744        0.19456572
      69         -0.582082        2.000000        0.00001700        0.00007001        0.52514493        0.00016106
      70         -0.581179        2.000000        0.00000426        0.00002053        0.52569464        0.00005146
      71         -0.580143        2.000000        0.00001140        0.00006140        0.52282293        0.00014825
      72         -0.570851        2.000000        0.00124846        0.27996841        0.00008964        0.25847384
      73         -0.568507        2.000000        0.01553100        0.33181102        0.00004930        0.20915815
      74         -0.568283        2.000000        0.01601172        0.32552658        0.00009335        0.21590768
      75         -0.558779        2.000000        0.01437399        0.36787469        0.08486224        0.11836426
      76         -0.558757        2.000000        0.00218999        0.05901665        0.52994713        0.01874854
      77         -0.558067        2.000000        0.01737904        0.42255179        0.00087454        0.14105787
      78         -0.555517        2.000000        0.00002958        0.00030241        0.49388353        0.00018615
      79         -0.554942        2.000000        0.00001479        0.00033654        0.49335504        0.00014238
      80         -0.553981        2.000000        0.00003886        0.00037027        0.49079913        0.00111026
      81         -0.552579        2.000000        0.00000781        0.00006935        0.48776829        0.00014893
      82         -0.552330        2.000000        0.00001001        0.00004164        0.48698250        0.00021348
      83         -0.551135        2.000000        0.01499140        0.03662361        0.00114618        0.52874576
      84         -0.546079        2.000000        0.01545210        0.22691569        0.00012618        0.34549669
      85         -0.545690        2.000000        0.01573162        0.33973291        0.00023850        0.23283875
      86         -0.530046        2.000000        0.00006237        0.00014896        0.56852003        0.00012201
      87         -0.527932        2.000000        0.00002763        0.00008055        0.55938031        0.00007648
      88         -0.527545        2.000000        0.00016652        0.00039015        0.55660358        0.00037933
      89         -0.524088        2.000000        0.15277871        0.38355162        0.00069737        0.37456151
      90         -0.519120        2.000000        0.13215019        0.26586408        0.00015454        0.49070896
      91         -0.517583        2.000000        0.12751696        0.44526718        0.00007062        0.31097023
      92         -0.517318        2.000000        0.12752139        0.44127109        0.00058411        0.31384649
      93         -0.512683        2.000000        0.00004871        0.00011839        0.61469943        0.00009881
      94         -0.512411        2.000000        0.00009520        0.00033230        0.61619133        0.00025980
      95         -0.510323        2.000000        0.00003997        0.00009077        0.61613352        0.00009986
      96         -0.502035        2.000000        0.00026764        0.00078982        0.53891945        0.00055312
      97         -0.501850        2.000000        0.00025071        0.00060186        0.53823954        0.00074934
      98         -0.498916        2.000000        0.12430419        0.38383854        0.00371019        0.38265789
      99         -0.498572        2.000000        0.12009316        0.36847509        0.02000291        0.37533172
     100         -0.498062        2.000000        0.00217235        0.00564740        0.51570985        0.00772960
     101         -0.497720        2.000000        0.00311193        0.01123201        0.50797648        0.00852823
     102         -0.496855        2.000000        0.00007340        0.00017996        0.52168317        0.00022061
     103         -0.492413        2.000000        0.13854046        0.35673351        0.00019451        0.41060464
     104         -0.491973        2.000000        0.13783286        0.35587724        0.00049734        0.41117428
     105         -0.484317        2.000000        0.13836840        0.42052410        0.00009080        0.34415699
     106         -0.482358        2.000000        0.11180516        0.60844253        0.00009942        0.16753023
     107         -0.476695        2.000000        0.11871809        0.25075610        0.00007629        0.52066974
     108         -0.476156        2.000000        0.11905566        0.25020154        0.00010204        0.52044095
     109         -0.461023        2.000000        0.00002756        0.00010773        0.97723239        0.00008792
     110         -0.451297        2.000000        0.08524528        0.42646885        0.00031398        0.41369427
     111         -0.451117        2.000000        0.09257069        0.28872187        0.00026447        0.54068561
     112         -0.450319        2.000000        0.08370044        0.43035643        0.00047919        0.41097472
     113         -0.446811        2.000000        0.00007695        0.00046432        0.96681306        0.00048030
     114         -0.446253        2.000000        0.00006541        0.00034187        0.96711011        0.00037945
     115         -0.444933        2.000000        0.02646900        0.28733135        0.60448672        0.03759853
     116         -0.444750        2.000000        0.04361712        0.48142137        0.36359133        0.05868400
     117         -0.443415        2.000000        0.07984842        0.33107968        0.00166759        0.51369412
     118         -0.443102        2.000000        0.07903584        0.33966275        0.00049684        0.50751213
     119         -0.431275        2.000000        0.08652989        0.42576144        0.00066255        0.42102941
     120         -0.426612        2.000000        0.00047500        0.00524910        0.99106123        0.00182683
     121         -0.425998        2.000000        0.00010219        0.00065745        0.99773155        0.00071758
     122         -0.425295        2.000000        0.03063493        0.39690256        0.43903378        0.09651843
     123         -0.425155        2.000000        0.02757265        0.19958262        0.48932639        0.25006074
     124         -0.424968        2.000000        0.04979447        0.24524862        0.07467234        0.57053365
     125         -0.422519        2.000000        0.05659737        0.53879491        0.00380668        0.34644965
     126         -0.422269        2.000000        0.05557821        0.54306747        0.00520526        0.34073210
     127         -0.421145        2.000000        0.05629381        0.27121317        0.01753681        0.60001032
     128         -0.420791        2.000000        0.00117915        0.00716036        0.97814901        0.01221030
     129         -0.349114        0.000000        0.00000132        0.00001581        0.32537750        0.00001340
     130         -0.348555        0.000000        0.00000237        0.00000413        0.32537673        0.00000604
     131         -0.347851        0.000000        0.00000220        0.00000798        0.32514383        0.00001322
     132         -0.321947        0.000000        0.00000181        0.00000692        0.46894314        0.00001132
     133         -0.320514        0.000000        0.00000241        0.00000587        0.46249380        0.00000560
     134         -0.319803        0.000000        0.00000335        0.00001302        0.47216602        0.00000964
     135         -0.319185        0.000000        0.00000175        0.00000780        0.46922385        0.00000569
     136         -0.318010        0.000000        0.00000244        0.00001086        0.48030687        0.00000713
     137         -0.303689        0.000000        0.00000249        0.00000311        0.37823987        0.00000472
     138         -0.299732        0.000000        0.00000365        0.00000735        0.46579499        0.00000679
     139         -0.297083        0.000000        0.00000225        0.00000524        0.47127180        0.00000372
     140         -0.296763        0.000000        0.00000133        0.00000488        0.47010526        0.00000597
     141         -0.237892        0.000000        0.00000279        0.00000660        0.50830298        0.00000348
     142         -0.237124        0.000000        0.00000281        0.00000666        0.50631780        0.00000267
     143         -0.236386        0.000000        0.00000161        0.00000171        0.51032649        0.00000962
     144         -0.234651        0.000000        0.00000296        0.00000605        0.51097013        0.00000296
     145         -0.234562        0.000000        0.00000118        0.00000188        0.51056227        0.00000409
     146         -0.212443        0.000000        0.00000180        0.00000431        0.49423865        0.00000237
     147         -0.211704        0.000000        0.00000187        0.00000248        0.49577389        0.00000424
     148         -0.210571        0.000000        0.00000091        0.00000295        0.49557413        0.00000404
     149         -0.167491        0.000000        0.00000161        0.00000255        0.50621863        0.00000222
     150         -0.166284        0.000000        0.00000204        0.00000199        0.50648914        0.00000129
     151         -0.165773        0.000000        0.00000155        0.00000246        0.50629402        0.00000101
     152         -0.155968        0.000000        0.00000093        0.00000198        0.50396225        0.00000076
     153         -0.039866        0.000000        0.32793480        0.00925996        0.00000745        0.01300277
     154         -0.027191        0.000000        0.20424267        0.12899158        0.00000734        0.06677483
     155         -0.022061        0.000000        0.16352427        0.16530442        0.00000494        0.09113940
     156         -0.018766        0.000000        0.20825717        0.08325952        0.00000704        0.11157667
     157         -0.008226        0.000000        0.12825243        0.19657660        0.00000499        0.09995306
     158         -0.005669        0.000000        0.13255390        0.19745601        0.00000951        0.09668176
     159         -0.004110        0.000000        0.08653111        0.02543187        0.00000553        0.32767053
     160         -0.000031        0.000000        0.13776478        0.03650495        0.00000383        0.25338352
     161          0.003046        0.000000        0.13947629        0.24814852        0.00000355        0.04117650
     162          0.012027        0.000000        0.04455720        0.31706959        0.00000560        0.10018987
     163          0.015373        0.000000        0.03564094        0.04882929        0.00000307        0.38075922
     164          0.020747        0.000000        0.03368315        0.28365983        0.00000406        0.14902186
     165          0.067298        0.000000        0.18358447        0.11717058        0.00000439        0.11642318
     166          0.074535        0.000000        0.17662440        0.12156103        0.00000376        0.12521854
     167          0.076283        0.000000        0.15698837        0.12676414        0.00000255        0.14502188
     168          0.079032        0.000000        0.17485063        0.11571639        0.00000428        0.13645187
     169          0.080783        0.000000        0.03560397        0.10800059        0.00000149        0.31800023
     170          0.084165        0.000000        0.02486346        0.13903952        0.00000392        0.30145555
     171          0.088336        0.000000        0.04426428        0.12191430        0.00000253        0.29447451
     172          0.088878        0.000000        0.04340567        0.16098268        0.00000460        0.25823510
     173          0.093920        0.000000        0.02493760        0.28321633        0.00000507        0.15796305
     174          0.095910        0.000000        0.02922572        0.29015513        0.00000692        0.14906266
     175          0.098144        0.000000        0.02133888        0.31940178        0.00000272        0.12775557
     176          0.101297        0.000000        0.02025549        0.31812903        0.00000609        0.13039709
     177          0.179204        0.000000        0.01596235        0.24169878        0.00000738        0.21349214
     178          0.179512        0.000000        0.02300856        0.21617256        0.00000250        0.22389952
