# Projected DOS for atomic kind C at iteration step i = 0, E(Fermi) =    -0.417214 a.u.
#     MO Eigenvalue [a.u.]      Occupation                 s                py                pz                px
       1         -0.860339        2.000000        0.16028958        0.10833536        0.00005181        0.09732450
       2         -0.857948        2.000000        0.16324865        0.10310194        0.00005388        0.09855275
       3         -0.855398        2.000000        0.16212248        0.10638182        0.00001649        0.09783941
       4         -0.843838        2.000000        0.16565321        0.10192246        0.00001181        0.09142804
       5         -0.831875        2.000000        0.17044092        0.08544307        0.00004385        0.09440032
       6         -0.827718        2.000000        0.17933027        0.08835031        0.00002809        0.08062870
       7         -0.827387        2.000000        0.17218964        0.09102058        0.00001588        0.08561703
       8         -0.814221        2.000000        0.20433257        0.06715269        0.00001835        0.07276788
       9         -0.807185        2.000000        0.22912063        0.07074072        0.00007718        0.10851173
      10         -0.806074        2.000000        0.18941593        0.07343161        0.00005101        0.14483522
      11         -0.805034        2.000000        0.24091450        0.11723610        0.00002817        0.04448817
      12         -0.802094        2.000000        0.23240293        0.08569407        0.00004295        0.08362214
      13         -0.801417        2.000000        0.22595352        0.11190936        0.00004263        0.06749161
      14         -0.800354        2.000000        0.21889963        0.12450585        0.00004234        0.05537852
      15         -0.799757        2.000000        0.18785574        0.09685958        0.00004732        0.11917391
      16         -0.798615        2.000000        0.19850625        0.07964217        0.00003566        0.12184772
      17         -0.797035        2.000000        0.17527977        0.12524496        0.00005768        0.08844882
      18         -0.796613        2.000000        0.19091677        0.07850943        0.00004663        0.11280733
      19         -0.796096        2.000000        0.14235162        0.15258488        0.00008685        0.09326498
      20         -0.795392        2.000000        0.15498098        0.08495064        0.00006933        0.14248722
      21         -0.794339        2.000000        0.11530278        0.11534215        0.00004063        0.15506896
      22         -0.793319        2.000000        0.16529681        0.12907936        0.00005032        0.08885525
      23         -0.790670        2.000000        0.14497178        0.10033378        0.00003289        0.13402193
      24         -0.789839        2.000000        0.12157122        0.08485848        0.00010734        0.17884117
      25         -0.789500        2.000000        0.12321701        0.15441394        0.00004834        0.10689129
      26         -0.788389        2.000000        0.11459229        0.14103097        0.00003264        0.12443952
      27         -0.787291        2.000000        0.04945925        0.15106956        0.00002215        0.18255163
      28         -0.786344        2.000000        0.09821509        0.15294953        0.00002239        0.13641387
      29         -0.784224        2.000000        0.09953093        0.15193127        0.00002717        0.13001112
      30         -0.783165        2.000000        0.05296260        0.17251335        0.00005056        0.14844790
      31         -0.781576        2.000000        0.02862724        0.16597835        0.00001665        0.17980540
      32         -0.776887        2.000000        0.01237232        0.17583898        0.00002252        0.18360645
      33         -0.699591        2.000000        0.38257858        0.05954740        0.00004656        0.05087578
      34         -0.697701        2.000000        0.38232811        0.06335168        0.00003259        0.04848758
      35         -0.695500        2.000000        0.39237541        0.05100986        0.00005772        0.05679557
      36         -0.691432        2.000000        0.39253781        0.05313439        0.00003813        0.05271046
      37         -0.688617        2.000000        0.39845906        0.06054969        0.00003664        0.04324469
      38         -0.688063        2.000000        0.37021026        0.03266978        0.00003024        0.08828587
      39         -0.682546        2.000000        0.34292120        0.07417625        0.00004297        0.06154836
      40         -0.679362        2.000000        0.35024022        0.05850707        0.00002439        0.07621584
      41         -0.674819        2.000000        0.31734260        0.06005583        0.00008096        0.08494586
      42         -0.671609        2.000000        0.29323459        0.09836889        0.00004414        0.06459018
      43         -0.669934        2.000000        0.29589561        0.08223500        0.00004178        0.07866527
      44         -0.662228        2.000000        0.32652454        0.08725987        0.00006120        0.07979011
      45         -0.658642        2.000000        0.16501983        0.16661615        0.00007180        0.14679224
      46         -0.657341        2.000000        0.16276676        0.15007505        0.00008632        0.16969535
      47         -0.650279        2.000000        0.08568283        0.15160047        0.00021096        0.19258368
      48         -0.647173        2.000000        0.07791438        0.16579951        0.00007739        0.18493718
      49         -0.643127        2.000000        0.07847056        0.17479723        0.00015132        0.18323075
      50         -0.642214        2.000000        0.07386316        0.19336961        0.00022817        0.17532291
      51         -0.638515        2.000000        0.07205009        0.25574764        0.00022090        0.11721168
      52         -0.637951        2.000000        0.07655887        0.17840247        0.00020665        0.18936113
      53         -0.633537        2.000000        0.06474664        0.25149781        0.00014724        0.12945118
      54         -0.632899        2.000000        0.06220519        0.13040834        0.00008172        0.24594602
      55         -0.627104        2.000000        0.11927076        0.21661735        0.00022279        0.14713107
      56         -0.625231        2.000000        0.13069350        0.21918403        0.00010721        0.13540543
      57         -0.621521        2.000000        0.08385335        0.20623084        0.00139633        0.18621425
      58         -0.619244        2.000000        0.00051967        0.00061913        0.47298292        0.00090555
      59         -0.615446        2.000000        0.00018226        0.00026595        0.46673052        0.00037353
      60         -0.612619        2.000000        0.00028443        0.00038031        0.46670009        0.00057351
      61         -0.605639        2.000000        0.00391416        0.00342017        0.45826089        0.01101823
      62         -0.605506        2.000000        0.09197013        0.08752483        0.01894130        0.27170180
      63         -0.604123        2.000000        0.09247941        0.08963441        0.00077051        0.28559550
      64         -0.593385        2.000000        0.11659332        0.24548939        0.00035491        0.10733919
      65         -0.592074        2.000000        0.10429333        0.05049298        0.00090751        0.30323412
      66         -0.590243        2.000000        0.07575218        0.30206764        0.00122832        0.06255682
      67         -0.588205        2.000000        0.08163381        0.24049009        0.00135715        0.13273706
      68         -0.587578        2.000000        0.09483361        0.04892259        0.04639960        0.26827561
      69         -0.586001        2.000000        0.01149296        0.00599281        0.42384162        0.02721138
      70         -0.583243        2.000000        0.00049556        0.00027189        0.46662354        0.00095970
      71         -0.579990        2.000000        0.00065730        0.00062153        0.47146498        0.00162092
      72         -0.573400        2.000000        0.02185093        0.23108648        0.00122756        0.20153779
      73         -0.569933        2.000000        0.04759543        0.21990285        0.00073606        0.17268030
      74         -0.568418        2.000000        0.02683986        0.21179099        0.00091195        0.21261328
      75         -0.561085        2.000000        0.02110116        0.31119165        0.00463294        0.08871758
      76         -0.559165        2.000000        0.01701075        0.24884464        0.09801994        0.05438052
      77         -0.558947        2.000000        0.00509453        0.07254759        0.30692995        0.01621111
      78         -0.557391        2.000000        0.00056071        0.00419856        0.49168974        0.00125169
      79         -0.556415        2.000000        0.00036570        0.00266925        0.50132231        0.00094783
      80         -0.553713        2.000000        0.00190952        0.00661656        0.41059236        0.07034993
      81         -0.552728        2.000000        0.00760573        0.01353572        0.09755442        0.31779293
      82         -0.551237        2.000000        0.00025516        0.00060070        0.50183787        0.00580490
      83         -0.551054        2.000000        0.00016013        0.00040221        0.50674387        0.00043675
      84         -0.547223        2.000000        0.01466832        0.11352330        0.00208644        0.28379265
      85         -0.545210        2.000000        0.01608832        0.27103690        0.00262315        0.12244028
      86         -0.531315        2.000000        0.00046109        0.00011627        0.42966291        0.00030097
      87         -0.528297        2.000000        0.00016310        0.00018599        0.44322610        0.00019830
      88         -0.527272        2.000000        0.00133412        0.00062126        0.44611658        0.00040845
      89         -0.523125        2.000000        0.05917265        0.01327334        0.00704441        0.01438954
      90         -0.518426        2.000000        0.02286361        0.07596625        0.00179387        0.01120506
      91         -0.516814        2.000000        0.01842696        0.03513308        0.00055902        0.06248189
      92         -0.516201        2.000000        0.01713805        0.03389489        0.01118421        0.06317989
      93         -0.513455        2.000000        0.00047187        0.00054849        0.38178123        0.00065093
      94         -0.512469        2.000000        0.00041431        0.00064724        0.36724153        0.00185901
      95         -0.506732        2.000000        0.00018659        0.00009099        0.37382425        0.00024104
      96         -0.502887        2.000000        0.00048293        0.00023370        0.45430946        0.00077588
      97         -0.501857        2.000000        0.00052068        0.00160437        0.44611895        0.00102844
      98         -0.498887        2.000000        0.00089979        0.00410851        0.44710142        0.00118292
      99         -0.498545        2.000000        0.00930392        0.04912673        0.02174580        0.03949232
     100         -0.498081        2.000000        0.00183689        0.00686173        0.42152321        0.00349272
     101         -0.496860        2.000000        0.01154906        0.02941363        0.07042548        0.04185437
     102         -0.494669        2.000000        0.00019376        0.00017378        0.47335528        0.00051039
     103         -0.491614        2.000000        0.04128595        0.01599410        0.00261200        0.03580443
     104         -0.490119        2.000000        0.04315966        0.01445630        0.00454036        0.03592314
     105         -0.484299        2.000000        0.04809787        0.03542618        0.00080071        0.01305783
     106         -0.480770        2.000000        0.00929427        0.02045760        0.00115228        0.07917315
     107         -0.475622        2.000000        0.01435685        0.05832612        0.00039167        0.03308800
     108         -0.474089        2.000000        0.01407262        0.06699691        0.00115737        0.02601572
     109         -0.461353        2.000000        0.00008458        0.00017934        0.02552583        0.00015310
     110         -0.451999        2.000000        0.00838621        0.03911170        0.00056409        0.02242150
     111         -0.450833        2.000000        0.00672962        0.02702851        0.00031091        0.04460811
     112         -0.449086        2.000000        0.00031546        0.00204620        0.03496149        0.00131467
     113         -0.447900        2.000000        0.00542241        0.03129209        0.00621260        0.02390408
     114         -0.447621        2.000000        0.00099255        0.00511090        0.02949356        0.00396464
     115         -0.443260        2.000000        0.01644527        0.01995355        0.00513748        0.02225062
     116         -0.442941        2.000000        0.01967255        0.01995185        0.00020552        0.03281075
     117         -0.442219        2.000000        0.00345382        0.00380035        0.02639496        0.00425073
     118         -0.441033        2.000000        0.01670470        0.01954898        0.00010359        0.03090364
     119         -0.429691        2.000000        0.00097560        0.03192906        0.00018230        0.03098980
     120         -0.427908        2.000000        0.00052032        0.00171114        0.00199589        0.00079891
     121         -0.426410        2.000000        0.00011207        0.00023098        0.00102095        0.00034621
     122         -0.425147        2.000000        0.01224341        0.03448210        0.00030017        0.01220921
     123         -0.423913        2.000000        0.01297081        0.00798522        0.00022253        0.04245422
     124         -0.423371        2.000000        0.00048740        0.00078709        0.00159292        0.00074166
     125         -0.420402        2.000000        0.01198176        0.01851612        0.00042882        0.01443668
     126         -0.419605        2.000000        0.01149075        0.01849481        0.00040894        0.01804645
     127         -0.419289        2.000000        0.00397513        0.00694193        0.00144204        0.00451071
     128         -0.417214        2.000000        0.01311044        0.02410511        0.00008836        0.01651634
     129         -0.352418        0.000000        0.00029219        0.00004537        0.67065493        0.00015634
     130         -0.350676        0.000000        0.00014498        0.00005195        0.66460006        0.00013352
     131         -0.348311        0.000000        0.00029158        0.00007309        0.66902465        0.00013814
     132         -0.325883        0.000000        0.00032095        0.00005485        0.52790069        0.00008776
     133         -0.320693        0.000000        0.00029808        0.00008168        0.53319923        0.00008569
     134         -0.319075        0.000000        0.00022444        0.00003701        0.52832358        0.00008999
     135         -0.316884        0.000000        0.00014778        0.00008957        0.53366229        0.00006506
     136         -0.316274        0.000000        0.00016998        0.00004417        0.52867614        0.00002586
     137         -0.303811        0.000000        0.00031136        0.00003736        0.61382728        0.00009007
     138         -0.299844        0.000000        0.00038246        0.00007499        0.53343230        0.00006474
     139         -0.294678        0.000000        0.00018088        0.00007710        0.53129037        0.00003151
     140         -0.292357        0.000000        0.00016139        0.00004196        0.53449536        0.00005900
     141         -0.241233        0.000000        0.00030444        0.00006179        0.49042089        0.00003309
     142         -0.237349        0.000000        0.00036655        0.00005697        0.48970545        0.00006163
     143         -0.236905        0.000000        0.00021930        0.00006521        0.49417160        0.00003548
     144         -0.230962        0.000000        0.00013568        0.00002703        0.49192460        0.00005726
     145         -0.230580        0.000000        0.00011955        0.00007841        0.48963716        0.00003504
     146         -0.213036        0.000000        0.00026049        0.00003949        0.50518964        0.00002583
     147         -0.211100        0.000000        0.00019298        0.00002701        0.50420908        0.00004146
     148         -0.207544        0.000000        0.00014221        0.00003712        0.50432991        0.00004530
     149         -0.169328        0.000000        0.00038202        0.00003887        0.49418912        0.00003434
     150         -0.164526        0.000000        0.00029148        0.00002854        0.49304767        0.00002774
     151         -0.162986        0.000000        0.00013139        0.00002168        0.49439395        0.00002964
     152         -0.154125        0.000000        0.00019781        0.00001255        0.49614957        0.00002297
     153         -0.048118        0.000000        0.31579732        0.14415005        0.00026318        0.17770713
     154         -0.034923        0.000000        0.34820581        0.11797737        0.00022431        0.11739538
     155         -0.027133        0.000000        0.28135821        0.18903290        0.00018385        0.07984307
     156         -0.017234        0.000000        0.28109131        0.17159687        0.00012970        0.11951180
     157         -0.008825        0.000000        0.36258244        0.16936183        0.00019714        0.07275793
     158         -0.006762        0.000000        0.33718834        0.12604285        0.00014083        0.11318796
     159         -0.001369        0.000000        0.31621022        0.08053697        0.00013198        0.15866262
     160          0.008378        0.000000        0.30825455        0.13268575        0.00024316        0.13353999
     161          0.014048        0.000000        0.32364453        0.15609691        0.00014064        0.08548247
     162          0.019856        0.000000        0.31962483        0.07729225        0.00013902        0.16109702
     163          0.034552        0.000000        0.34661473        0.06446195        0.00018198        0.15812179
     164          0.035911        0.000000        0.32803355        0.05678392        0.00028961        0.15869338
     165          0.042404        0.000000        0.30516802        0.11030990        0.00031088        0.11721364
     166          0.053149        0.000000        0.32549435        0.07545282        0.00011064        0.16645218
     167          0.058745        0.000000        0.31864302        0.06022978        0.00007299        0.17801006
     168          0.060816        0.000000        0.38256519        0.04044726        0.00063667        0.12645011
     169          0.065563        0.000000        0.33465293        0.04971689        0.00070909        0.16746528
     170          0.069667        0.000000        0.38488534        0.04161099        0.00019002        0.12902626
     171          0.084887        0.000000        0.39975600        0.08047041        0.00101455        0.06745171
     172          0.089697        0.000000        0.37484112        0.05611092        0.00028064        0.13331569
     173          0.101341        0.000000        0.34033444        0.09286247        0.00024913        0.10268418
     174          0.103698        0.000000        0.39329465        0.09866970        0.00033207        0.02920344
     175          0.107867        0.000000        0.30867285        0.19569387        0.00004592        0.03370546
     176          0.121293        0.000000        0.29792462        0.21917308        0.00014344        0.02085815
     177          0.157880        0.000000        0.16319707        0.27797682        0.00003450        0.10565164
     178          0.171042        0.000000        0.18964181        0.12161691        0.00009961        0.23030447
