# Projected DOS for atomic kind C at iteration step i = 0, E(Fermi) =    -0.420791 a.u.
#     MO Eigenvalue [a.u.]      Occupation                 s                py                pz                px
       1         -0.859644        2.000000        0.16020723        0.10471238        0.00000399        0.10170634
       2         -0.858977        2.000000        0.16099480        0.10325573        0.00000306        0.10202050
       3         -0.858166        2.000000        0.16078710        0.10416271        0.00000156        0.10178026
       4         -0.854978        2.000000        0.16143733        0.10304947        0.00000132        0.10003190
       5         -0.823974        2.000000        0.18043830        0.08154672        0.00000292        0.08424159
       6         -0.822828        2.000000        0.18426205        0.08220998        0.00000160        0.07941986
       7         -0.822618        2.000000        0.18072991        0.08306371        0.00000123        0.08183142
       8         -0.818917        2.000000        0.19026205        0.07623403        0.00000107        0.07785731
       9         -0.803813        2.000000        0.24681512        0.06883957        0.00000506        0.09091328
      10         -0.803032        2.000000        0.24469951        0.10614956        0.00000313        0.05245275
      11         -0.802484        2.000000        0.21515285        0.06184714        0.00000503        0.13257127
      12         -0.802174        2.000000        0.24284789        0.05488064        0.00000307        0.10857348
      13         -0.801373        2.000000        0.23004946        0.13514868        0.00000234        0.04757887
      14         -0.801200        2.000000        0.22161370        0.10714878        0.00000336        0.07384138
      15         -0.800384        2.000000        0.20113744        0.10386530        0.00000261        0.10174452
      16         -0.800266        2.000000        0.20549620        0.08450682        0.00000186        0.11553908
      17         -0.795722        2.000000        0.19846277        0.09866917        0.00000375        0.08236363
      18         -0.795489        2.000000        0.19051473        0.10980429        0.00000461        0.07814965
      19         -0.795018        2.000000        0.15543385        0.12965738        0.00000261        0.09580355
      20         -0.794582        2.000000        0.13996615        0.09695923        0.00000281        0.14441808
      21         -0.794341        2.000000        0.14382262        0.12949286        0.00000490        0.10734561
      22         -0.793236        2.000000        0.16448112        0.11321742        0.00000392        0.09449039
      23         -0.791469        2.000000        0.11278428        0.10707743        0.00000231        0.16949952
      24         -0.791039        2.000000        0.10428884        0.10004627        0.00000415        0.18627531
      25         -0.790730        2.000000        0.11137930        0.18385170        0.00000272        0.09443963
      26         -0.789222        2.000000        0.10470741        0.13566827        0.00000236        0.14521343
      27         -0.788522        2.000000        0.10201166        0.13256310        0.00000226        0.15192435
      28         -0.788108        2.000000        0.08248667        0.11911604        0.00000302        0.18621149
      29         -0.785139        2.000000        0.04130829        0.18274327        0.00000191        0.15232700
      30         -0.784263        2.000000        0.02838650        0.18808044        0.00000225        0.15933209
      31         -0.783934        2.000000        0.02217374        0.18360367        0.00000134        0.16927302
      32         -0.778858        2.000000        0.00109733        0.18470507        0.00000164        0.18505014
      33         -0.697081        2.000000        0.37875165        0.06166047        0.00000280        0.05019423
      34         -0.696401        2.000000        0.37792368        0.06331654        0.00000261        0.04893908
      35         -0.694993        2.000000        0.39800006        0.05416802        0.00000219        0.04607766
      36         -0.690206        2.000000        0.37185470        0.02553380        0.00000265        0.09431073
      37         -0.689149        2.000000        0.39526783        0.04665436        0.00000265        0.05815082
      38         -0.688897        2.000000        0.40942730        0.06278370        0.00000239        0.03297982
      39         -0.681887        2.000000        0.34797138        0.07976137        0.00000331        0.05414926
      40         -0.681271        2.000000        0.35070544        0.05290406        0.00000192        0.07997107
      41         -0.675142        2.000000        0.31183506        0.05265712        0.00000617        0.09303216
      42         -0.673974        2.000000        0.28659128        0.09505421        0.00000324        0.06618177
      43         -0.673751        2.000000        0.28836230        0.09067480        0.00000346        0.06943080
      44         -0.661782        2.000000        0.33533503        0.08080565        0.00000450        0.08016877
      45         -0.656167        2.000000        0.15736691        0.17467975        0.00000382        0.15283108
      46         -0.655984        2.000000        0.15523937        0.15544487        0.00000567        0.17461095
      47         -0.649462        2.000000        0.07336262        0.16399611        0.00001428        0.18903113
      48         -0.648746        2.000000        0.06874079        0.17124809        0.00000681        0.18580061
      49         -0.645986        2.000000        0.09645016        0.09507220        0.00000643        0.23519672
      50         -0.643075        2.000000        0.04888427        0.25286722        0.00001806        0.15089081
      51         -0.638095        2.000000        0.08814184        0.27749431        0.00001738        0.07717772
      52         -0.637896        2.000000        0.08974424        0.09029692        0.00001874        0.26155183
      53         -0.636046        2.000000        0.05980748        0.20215719        0.00000870        0.18736030
      54         -0.635907        2.000000        0.05911851        0.23431648        0.00000741        0.15641397
      55         -0.625276        2.000000        0.13431613        0.21690778        0.00002013        0.13526158
      56         -0.624705        2.000000        0.13636576        0.21817700        0.00002042        0.13260542
      57         -0.621249        2.000000        0.09424619        0.20801408        0.00004344        0.18109759
      58         -0.618714        2.000000        0.00002333        0.00001979        0.47402728        0.00003533
      59         -0.614904        2.000000        0.00001222        0.00001854        0.46570037        0.00002212
      60         -0.614194        2.000000        0.00002456        0.00003432        0.46588430        0.00003747
      61         -0.612129        2.000000        0.00000577        0.00001161        0.46844863        0.00001099
      62         -0.603961        2.000000        0.09316096        0.08888322        0.00002698        0.28642258
      63         -0.603626        2.000000        0.09228448        0.09023797        0.00004200        0.28553401
      64         -0.591731        2.000000        0.13535623        0.25121193        0.00002242        0.08493888
      65         -0.589558        2.000000        0.10688856        0.04361990        0.00004378        0.30579181
      66         -0.588344        2.000000        0.10041431        0.10047410        0.00025569        0.25300591
      67         -0.588060        2.000000        0.06799632        0.21985358        0.00012769        0.16374021
      68         -0.587706        2.000000        0.07454904        0.28867143        0.00004679        0.07986652
      69         -0.582082        2.000000        0.00006686        0.00006356        0.47438430        0.00009228
      70         -0.581179        2.000000        0.00001863        0.00001609        0.47415705        0.00003734
      71         -0.580143        2.000000        0.00004257        0.00004906        0.47676689        0.00009749
      72         -0.570851        2.000000        0.00369347        0.23103068        0.00008654        0.22540895
      73         -0.568507        2.000000        0.04227506        0.21292397        0.00004621        0.18820529
      74         -0.568283        2.000000        0.04283265        0.21103004        0.00007351        0.18852447
      75         -0.558779        2.000000        0.01884036        0.27601726        0.05331756        0.06634964
      76         -0.558757        2.000000        0.00289402        0.04454703        0.33210393        0.01055271
      77         -0.558067        2.000000        0.02205950        0.32252855        0.00074454        0.07280417
      78         -0.555517        2.000000        0.00004032        0.00025118        0.50521708        0.00008976
      79         -0.554942        2.000000        0.00002691        0.00024231        0.50577902        0.00010300
      80         -0.553981        2.000000        0.00003046        0.00026259        0.50658604        0.00080238
      81         -0.552579        2.000000        0.00001230        0.00003254        0.51184343        0.00011735
      82         -0.552330        2.000000        0.00001232        0.00003704        0.51254994        0.00015306
      83         -0.551135        2.000000        0.00951022        0.00502104        0.00118381        0.40277798
      84         -0.546079        2.000000        0.01472767        0.13126565        0.00012647        0.26588955
      85         -0.545690        2.000000        0.01521074        0.26342330        0.00021419        0.13260999
      86         -0.530046        2.000000        0.00004455        0.00001194        0.43106683        0.00002332
      87         -0.527932        2.000000        0.00000997        0.00001341        0.44039183        0.00001982
      88         -0.527545        2.000000        0.00009429        0.00003790        0.44230078        0.00002743
      89         -0.524088        2.000000        0.06089129        0.01326009        0.00057522        0.01368419
      90         -0.519120        2.000000        0.02258152        0.08109951        0.00008366        0.00735754
      91         -0.517583        2.000000        0.01806852        0.03315947        0.00004074        0.06490628
      92         -0.517318        2.000000        0.01753021        0.03351467        0.00036760        0.06536444
      93         -0.512683        2.000000        0.00002209        0.00001320        0.38497578        0.00002360
      94         -0.512411        2.000000        0.00001789        0.00002006        0.38302013        0.00006329
      95         -0.510323        2.000000        0.00001301        0.00001473        0.38359540        0.00001274
      96         -0.502035        2.000000        0.00005267        0.00002506        0.45925417        0.00013807
      97         -0.501850        2.000000        0.00003598        0.00011077        0.45994292        0.00006888
      98         -0.498916        2.000000        0.00930886        0.04534574        0.00323006        0.04760452
      99         -0.498572        2.000000        0.00927175        0.04557282        0.01821505        0.04303751
     100         -0.498062        2.000000        0.00017643        0.00120715        0.46695301        0.00040423
     101         -0.497720        2.000000        0.00028798        0.00054644        0.46664390        0.00167303
     102         -0.496855        2.000000        0.00001495        0.00001690        0.47777169        0.00003933
     103         -0.492413        2.000000        0.04628087        0.01433879        0.00017028        0.03313693
     104         -0.491973        2.000000        0.04579846        0.01455403        0.00045692        0.03380887
     105         -0.484317        2.000000        0.05239083        0.03848036        0.00004378        0.00594473
     106         -0.482358        2.000000        0.00598429        0.00989821        0.00008445        0.09615570
     107         -0.476695        2.000000        0.01387284        0.07024959        0.00004422        0.02561314
     108         -0.476156        2.000000        0.01384351        0.07092413        0.00007926        0.02535290
     109         -0.461023        2.000000        0.00000490        0.00001098        0.02251897        0.00000954
     110         -0.451297        2.000000        0.00707713        0.03876797        0.00001586        0.02841667
     111         -0.451117        2.000000        0.00611979        0.03099712        0.00001426        0.04062618
     112         -0.450319        2.000000        0.00656442        0.03891172        0.00002300        0.02899008
     113         -0.446811        2.000000        0.00001741        0.00002914        0.03208909        0.00002972
     114         -0.446253        2.000000        0.00002014        0.00002369        0.03203361        0.00002571
     115         -0.444933        2.000000        0.00757863        0.01129208        0.01917796        0.00606574
     116         -0.444750        2.000000        0.01261466        0.01864314        0.01174769        0.00968069
     117         -0.443415        2.000000        0.02008129        0.01643181        0.00008006        0.03711703
     118         -0.443102        2.000000        0.01940491        0.01692090        0.00002553        0.03694111
     119         -0.431275        2.000000        0.00006735        0.03285728        0.00001325        0.03307884
     120         -0.426612        2.000000        0.00010803        0.00032928        0.00085619        0.00009434
     121         -0.425998        2.000000        0.00002100        0.00003090        0.00069410        0.00004523
     122         -0.425295        2.000000        0.00747499        0.02346781        0.00031922        0.00564827
     123         -0.425155        2.000000        0.00673433        0.01166105        0.00034782        0.01471440
     124         -0.424968        2.000000        0.01221204        0.01446572        0.00006606        0.03300710
     125         -0.422519        2.000000        0.01479508        0.02366741        0.00000751        0.01588140
     126         -0.422269        2.000000        0.01440612        0.02520195        0.00001369        0.01579521
     127         -0.421145        2.000000        0.01385193        0.01576392        0.00001154        0.02531849
     128         -0.420791        2.000000        0.00030477        0.00035029        0.00014680        0.00049930
     129         -0.349114        0.000000        0.00001668        0.00000278        0.67456352        0.00000901
     130         -0.348555        0.000000        0.00001195        0.00000431        0.67458606        0.00000841
     131         -0.347851        0.000000        0.00001962        0.00000408        0.67480073        0.00000834
     132         -0.321947        0.000000        0.00002330        0.00000469        0.53100299        0.00000584
     133         -0.320514        0.000000        0.00001598        0.00000435        0.53746623        0.00000576
     134         -0.319803        0.000000        0.00001428        0.00000518        0.52778428        0.00000424
     135         -0.319185        0.000000        0.00000874        0.00000553        0.53074247        0.00000416
     136         -0.318010        0.000000        0.00001203        0.00000280        0.51965435        0.00000351
     137         -0.303689        0.000000        0.00001849        0.00000264        0.62172341        0.00000527
     138         -0.299732        0.000000        0.00002716        0.00000636        0.53414863        0.00000507
     139         -0.297083        0.000000        0.00001127        0.00000585        0.52869782        0.00000205
     140         -0.296763        0.000000        0.00001329        0.00000302        0.52986293        0.00000331
     141         -0.237892        0.000000        0.00002107        0.00000521        0.49165535        0.00000251
     142         -0.237124        0.000000        0.00001460        0.00000488        0.49364788        0.00000270
     143         -0.236386        0.000000        0.00002014        0.00000351        0.48963275        0.00000416
     144         -0.234651        0.000000        0.00000877        0.00000609        0.48900062        0.00000241
     145         -0.234562        0.000000        0.00001013        0.00000170        0.48941434        0.00000441
     146         -0.212443        0.000000        0.00001417        0.00000312        0.50573380        0.00000179
     147         -0.211704        0.000000        0.00001414        0.00000175        0.50419925        0.00000238
     148         -0.210571        0.000000        0.00001043        0.00000295        0.50440164        0.00000295
     149         -0.167491        0.000000        0.00002385        0.00000237        0.49374644        0.00000232
     150         -0.166284        0.000000        0.00002073        0.00000164        0.49348129        0.00000189
     151         -0.165773        0.000000        0.00000924        0.00000167        0.49368799        0.00000206
     152         -0.155968        0.000000        0.00001542        0.00000089        0.49601645        0.00000132
     153         -0.039866        0.000000        0.38675742        0.13510413        0.00001719        0.12791628
     154         -0.027191        0.000000        0.33374736        0.13511884        0.00001657        0.13110081
     155         -0.022061        0.000000        0.33242603        0.15336171        0.00001852        0.09422072
     156         -0.018766        0.000000        0.34494583        0.14453938        0.00000667        0.10740773
     157         -0.008226        0.000000        0.27686729        0.17806471        0.00001047        0.12027046
     158         -0.005669        0.000000        0.29081032        0.17076556        0.00000897        0.11171397
     159         -0.004110        0.000000        0.26584560        0.04037211        0.00001600        0.25412725
     160         -0.000031        0.000000        0.30017888        0.07364500        0.00001620        0.19850285
     161          0.003046        0.000000        0.30167731        0.23154686        0.00000870        0.03796226
     162          0.012027        0.000000        0.26131764        0.17149674        0.00001043        0.10535292
     163          0.015373        0.000000        0.26091913        0.03499375        0.00001261        0.23884198
     164          0.020747        0.000000        0.26131922        0.17045121        0.00001448        0.10184618
     165          0.067298        0.000000        0.42925417        0.06550707        0.00001126        0.08804489
     166          0.074535        0.000000        0.42559431        0.06420233        0.00002759        0.08676804
     167          0.076283        0.000000        0.41095724        0.06439417        0.00002325        0.09584840
     168          0.079032        0.000000        0.42943213        0.06020640        0.00003123        0.08330706
     169          0.080783        0.000000        0.33624811        0.02162029        0.00001038        0.18051494
     170          0.084165        0.000000        0.33773457        0.03826764        0.00003051        0.15860483
     171          0.088336        0.000000        0.34657284        0.02607938        0.00001132        0.16668085
     172          0.088878        0.000000        0.34487189        0.06339610        0.00004322        0.12906075
     173          0.093920        0.000000        0.34156121        0.14496441        0.00001997        0.04733235
     174          0.095910        0.000000        0.35195816        0.14903989        0.00002413        0.03052739
     175          0.098144        0.000000        0.33322143        0.17424971        0.00000786        0.02402206
     176          0.101297        0.000000        0.33020879        0.17676994        0.00001210        0.02422148
     177          0.179204        0.000000        0.23186007        0.21827551        0.00000978        0.07869400
     178          0.179512        0.000000        0.20703968        0.16211694        0.00000656        0.16775368
