       6
 i =        0, time =        0.000, E =      -180.7156923261
 Ti        -0.0010613172       -0.0011533158       -0.0050357399
 Ti         0.0010536994       -0.0001414743        0.0010265502
  O        -0.0704499927        0.0706422942       -0.0021319240
  O         0.0704018537       -0.0695039914       -0.0021332364
  O         0.0712025364        0.0709274464        0.0012646530
  O        -0.0711324556       -0.0699827236        0.0012739741
       6
 i =        1, time =        1.000, E =      -180.7224308048
 Ti        -0.0044202203        0.0016237470       -0.0108577855
 Ti        -0.0012711506        0.0012026226       -0.0040992195
  O        -0.0686211618        0.0680161852        0.0043167432
  O         0.0722769546       -0.0710965099        0.0020351753
  O         0.0724951399        0.0699319166        0.0048879553
  O        -0.0695947112       -0.0695794434        0.0035271458
       6
 i =        2, time =        2.000, E =      -180.7286746574
 Ti        -0.0079570231        0.0043415139       -0.0174807323
 Ti        -0.0035149192        0.0024525622       -0.0088993540
  O        -0.0639631185        0.0632321721        0.0076468882
  O         0.0713625958       -0.0702399431        0.0028168591
  O         0.0724429720        0.0681401923        0.0086841382
  O        -0.0671398702       -0.0682644254        0.0061616763
       6
 i =        3, time =        3.000, E =      -180.7367668165
 Ti        -0.0115001489        0.0069400649       -0.0241985328
 Ti        -0.0054934350        0.0034780406       -0.0137577115
  O        -0.0566986683        0.0576359885        0.0111015354
  O         0.0675208037       -0.0672545856        0.0035195221
  O         0.0697211343        0.0655048252        0.0124076681
  O        -0.0635752611       -0.0658289127        0.0093089061
       6
 i =        4, time =        4.000, E =      -180.7458355683
 Ti        -0.0150463625        0.0094530483       -0.0308742637
 Ti        -0.0071386380        0.0042331024       -0.0186268575
  O        -0.0467699390        0.0508867905        0.0146405478
  O         0.0604260021       -0.0609465393        0.0043363188
  O         0.0638124979        0.0614652917        0.0159767840
  O        -0.0582327944       -0.0617179704        0.0130169901
       6
 i =        5, time =        5.000, E =      -180.7552701576
 Ti        -0.0186780918        0.0119471402       -0.0376508758
 Ti        -0.0083504687        0.0046271118       -0.0235559142
  O        -0.0362138174        0.0422156597        0.0182496416
  O         0.0534670114       -0.0527176593        0.0057912840
  O         0.0571692190        0.0552948888        0.0195080682
  O        -0.0504519444       -0.0551404315        0.0170676270
       6
 i =        6, time =        6.000, E =      -180.7642311417
 Ti        -0.0222614970        0.0144431521       -0.0438326971
 Ti        -0.0090670460        0.0046060626       -0.0283867544
  O        -0.0275982685        0.0317395110        0.0220019824
  O         0.0483964395       -0.0455074924        0.0071843219
  O         0.0526988778        0.0466995237        0.0229395263
  O        -0.0405800341       -0.0464235956        0.0209303985
       6
 i =        7, time =        7.000, E =      -180.7725173768
 Ti        -0.0260728715        0.0170076788       -0.0496196345
 Ti        -0.0093097385        0.0040820553       -0.0331531118
  O        -0.0189098268        0.0197879021        0.0261421565
  O         0.0412795200       -0.0390215400        0.0085241858
  O         0.0474396118        0.0361699540        0.0261713945
  O        -0.0298709305       -0.0368915177        0.0236075123
       6
 i =        8, time =        8.000, E =      -180.7791481029
 Ti        -0.0301947212        0.0197760857       -0.0546040257
 Ti        -0.0091504727        0.0029053040       -0.0377437161
  O        -0.0066908373        0.0075271928        0.0305938287
  O         0.0287508941       -0.0292955128        0.0097571694
  O         0.0369419237        0.0253082567        0.0293853951
  O        -0.0198602546       -0.0282367185        0.0244631408
       6
 i =        9, time =        9.000, E =      -180.7837806267
 Ti        -0.0345829817        0.0228007919       -0.0583341578
 Ti        -0.0082315197        0.0010294589       -0.0417717477
  O         0.0085431379       -0.0041594820        0.0352371375
  O         0.0155315068       -0.0146376782        0.0110395013
  O         0.0248707708        0.0150627140        0.0325967085
  O        -0.0098252325       -0.0196863152        0.0234529069
       6
 i =       10, time =       10.000, E =      -180.7862793641
 Ti        -0.0392215141        0.0261755392       -0.0600648074
 Ti        -0.0064005671       -0.0017565683       -0.0449127402
  O         0.0230504385       -0.0157548385        0.0400173399
  O         0.0047256078        0.0007132281        0.0114351610
  O         0.0158981767        0.0036655872        0.0353118846
  O         0.0029288546       -0.0083369150        0.0208892896
