       6
 i =        0, time =        0.000, E =      -180.7156923261
 Ti         0.0000261980        0.0000088136       -0.0000391253
 Ti        -0.0001030829        0.0000786430       -0.0000658513
  O        -0.0002611133       -0.0000153354       -0.0002207638
  O         0.0002762754       -0.0001909644        0.0001621703
  O         0.0002453944       -0.0000321406        0.0000636964
  O        -0.0000305323       -0.0000232122        0.0003089662
       6
 i =        1, time =        1.000, E =      -180.7224308048
 Ti         0.0000239396        0.0000085988       -0.0000414225
 Ti        -0.0000993264        0.0000759879       -0.0000641424
  O        -0.0003494395        0.0000829119       -0.0002110699
  O         0.0003665831       -0.0002829593        0.0001561108
  O         0.0003375605        0.0000682779        0.0000656779
  O        -0.0001285425       -0.0001206722        0.0003009356
       6
 i =        2, time =        2.000, E =      -180.7286746574
 Ti         0.0000231788        0.0000108427       -0.0000521358
 Ti        -0.0001097433        0.0000839557       -0.0000732649
  O        -0.0004779224        0.0001855811       -0.0002220931
  O         0.0005046611       -0.0004115754        0.0001741742
  O         0.0004738722        0.0001745188        0.0000816183
  O        -0.0002394342       -0.0002316326        0.0003359991
       6
 i =        3, time =        3.000, E =      -180.7367668165
 Ti         0.0000182250        0.0000133392       -0.0000611721
 Ti        -0.0001101724        0.0000840570       -0.0000774818
  O        -0.0005557798        0.0002681085       -0.0002054093
  O         0.0005949792       -0.0005023528        0.0001759557
  O         0.0005669848        0.0002662449        0.0000952576
  O        -0.0003280856       -0.0003227916        0.0003417300
       6
 i =        4, time =        4.000, E =      -180.7458355683
 Ti         0.0000117054        0.0000169810       -0.0000731511
 Ti        -0.0001114180        0.0000845549       -0.0000838773
  O        -0.0006198014        0.0003401759       -0.0001841119
  O         0.0006755886       -0.0005845880        0.0001787267
  O         0.0006519572        0.0003513039        0.0001137143
  O        -0.0004085512       -0.0004073724        0.0003520789
       6
 i =        5, time =        5.000, E =      -180.7552701576
 Ti         0.0000037141        0.0000220490       -0.0000893771
 Ti        -0.0001150742        0.0000866438       -0.0000938611
  O        -0.0006785464        0.0004061268       -0.0001607768
  O         0.0007562356       -0.0006650838        0.0001858837
  O         0.0007376317        0.0004340224        0.0001388527
  O        -0.0004855388       -0.0004901537        0.0003733607
       6
 i =        6, time =        6.000, E =      -180.7642311417
 Ti        -0.0000061302        0.0000273658       -0.0001048970
 Ti        -0.0001143518        0.0000851815       -0.0001022017
  O        -0.0006951605        0.0004413895       -0.0001255117
  O         0.0007965190       -0.0007066283        0.0001872454
  O         0.0007843652        0.0004879619        0.0001630596
  O        -0.0005295486       -0.0005414257        0.0003845459
       6
 i =        7, time =        7.000, E =      -180.7725173768
 Ti        -0.0000173329        0.0000340301       -0.0001240684
 Ti        -0.0001156151        0.0000849464       -0.0001139404
  O        -0.0007092902        0.0004658378       -0.0000882819
  O         0.0008383094       -0.0007472017        0.0001932896
  O         0.0008338419        0.0005332160        0.0001932516
  O        -0.0005649531       -0.0005855634        0.0004055967
       6
 i =        8, time =        8.000, E =      -180.7791481029
 Ti        -0.0000305938        0.0000425393       -0.0001479838
 Ti        -0.0001191915        0.0000860101       -0.0001300005
  O        -0.0007225119        0.0004819941       -0.0000472875
  O         0.0008822383       -0.0007905530        0.0002049371
  O         0.0008880143        0.0005732079        0.0002314242
  O        -0.0005963624       -0.0006277839        0.0004369468
       6
 i =        9, time =        9.000, E =      -180.7837806267
 Ti        -0.0000460353        0.0000526160       -0.0001745990
 Ti        -0.0001229755        0.0000866755       -0.0001486556
  O        -0.0007188422        0.0004828500        0.0000001157
  O         0.0009111642       -0.0008195253        0.0002192000
  O         0.0009295038        0.0006003274        0.0002751621
  O        -0.0006157374       -0.0006601471        0.0004699231
       6
 i =       10, time =       10.000, E =      -180.7862793641
 Ti        -0.0000642112        0.0000649295       -0.0002049079
 Ti        -0.0001278793        0.0000874915       -0.0001710838
  O        -0.0007044477        0.0004741165        0.0000539602
  O         0.0009360645       -0.0008388481        0.0002377838
  O         0.0009692895        0.0006205837        0.0003268922
  O        -0.0006277042       -0.0006877370        0.0005070163
