# Projected DOS for atomic kind O at iteration step i = 0, E(Fermi) =     0.267945 a.u.
#     MO Eigenvalue [a.u.]      Occupation                 s                py                pz                px               d-2               d-1                d0               d+1               d+2
       1         -1.903765        2.000000        0.04031310        0.03316351        0.00007863        0.03254088        0.01179131        0.00001993        0.00825897        0.00001965        0.00000214
       2         -1.900241        2.000000        0.03352874        0.04307328        0.00006337        0.04208204        0.00918459        0.00001216        0.01092714        0.00001163        0.00000389
       3         -0.980546        2.000000        0.00931567        0.01181361        0.00000088        0.01281689        0.00437338        0.00000393        0.00027131        0.00000361        0.00250689
       4         -0.978058        2.000000        0.01360290        0.00949628        0.00000128        0.00861899        0.00462923        0.00000622        0.00000401        0.00000752        0.00284144
       5         -0.971024        2.000000        0.00961523        0.01425224        0.00005316        0.01347219        0.00002383        0.00000848        0.00991716        0.00000744        0.00011198
       6         -0.968170        2.000000        0.01399953        0.00947991        0.00000559        0.01036354        0.00003578        0.00000197        0.01010871        0.00000160        0.00040798
       7         -0.964857        2.000000        0.00007029        0.00004553        0.03757357        0.00004062        0.00001438        0.00751609        0.00001051        0.00728658        0.00000015
       8         -0.961313        2.000000        0.00006792        0.00005022        0.03234466        0.00005152        0.00000701        0.01018594        0.00000199        0.00986718        0.00000039
       9         -0.395035        2.000000        0.51860911        0.00018952        0.00000652        0.00017811        0.00067951        0.00000117        0.00001870        0.00000091        0.00000256
      10         -0.353204        2.000000        0.55279062        0.00048207        0.00001497        0.00042132        0.00116535        0.00000029        0.00000378        0.00000023        0.00001331
      11         -0.326383        2.000000        0.64776346        0.00052553        0.00001410        0.00057182        0.00027779        0.00000053        0.00014959        0.00000093        0.00099087
      12         -0.323461        2.000000        0.64798359        0.00081671        0.00001641        0.00077027        0.00033465        0.00000073        0.00014524        0.00000084        0.00095116
      13          0.055695        2.000000        0.00784237        0.28877296        0.00019971        0.28374177        0.00009383        0.00000235        0.00739413        0.00000168        0.00000100
      14          0.068848        2.000000        0.00116981        0.27736594        0.00013459        0.27124612        0.00579293        0.00000725        0.00017285        0.00000865        0.00000948
      15          0.089320        2.000000        0.00000433        0.24820794        0.00000666        0.25416169        0.00000040        0.00000155        0.00000019        0.00000331        0.00161814
      16          0.120190        2.000000        0.00001499        0.00009911        0.60526179        0.00013733        0.00000775        0.00090985        0.00000186        0.00142508        0.00000643
      17          0.121079        2.000000        0.00001621        0.00041289        0.60423787        0.00035738        0.00000123        0.00155079        0.00001054        0.00088638        0.00000381
      18          0.176149        2.000000        0.01377411        0.06186385        0.00068961        0.74413838        0.00235586        0.00000090        0.00015476        0.00000631        0.00137580
      19          0.178561        2.000000        0.01310550        0.74712756        0.00043160        0.06249413        0.00288617        0.00000339        0.00015283        0.00000037        0.00125100
      20          0.199283        2.000000        0.00001028        0.00020806        0.91374299        0.00011260        0.00001398        0.00033494        0.00001215        0.00034875        0.00000016
      21          0.245533        2.000000        0.00002001        0.00057434        0.91888693        0.00011438        0.00004769        0.00002183        0.00008909        0.00002729        0.00000167
      22          0.256858        2.000000        0.00023223        0.51021125        0.00066715        0.41217808        0.00001900        0.00003175        0.00024685        0.00002071        0.00063063
      23          0.258926        2.000000        0.00070151        0.42095058        0.00016705        0.51979910        0.00005847        0.00000866        0.00027781        0.00001465        0.00001062
      24          0.267945        2.000000        0.00001595        0.41649179        0.00007819        0.42491002        0.00001028        0.00000647        0.00003632        0.00000418        0.00373502
      25          0.318214        0.000000        0.00090987        0.00666479        0.00283802        0.00576612        0.01670345        0.00001518        0.02824106        0.00000307        0.00000505
      26          0.331938        0.000000        0.00010126        0.00477577        0.00237663        0.00536917        0.00036436        0.01163328        0.00118685        0.01205087        0.00091854
      27          0.333449        0.000000        0.00006458        0.04955771        0.00088103        0.05010141        0.00019397        0.00259721        0.00057377        0.00824287        0.00997879
      28          0.335203        0.000000        0.00005876        0.03763390        0.00136543        0.03818132        0.00018396        0.01223559        0.00059622        0.00526258        0.00634817
      29          0.337613        0.000000        0.00447437        0.03540326        0.00121476        0.03478545        0.01402788        0.00001973        0.03914193        0.00141519        0.00000921
      30          0.392743        0.000000        0.07976718        0.02763349        0.00014632        0.02085721        0.01575213        0.00000477        0.00699579        0.00000559        0.00000369
      31          0.410888        0.000000        0.00013725        0.08964761        0.00000210        0.09750914        0.00002178        0.00000451        0.00000265        0.00001351        0.00003917
      32          0.497702        0.000000        0.00007303        0.00096523        0.36387740        0.00091355        0.00002725        0.01051629        0.00005404        0.01021375        0.00003194
      33          0.503943        0.000000        0.00007748        0.00497341        0.35637162        0.00494047        0.00000667        0.01099477        0.00001920        0.01067116        0.00000073
      34          0.513967        0.000000        0.12266070        0.16613723        0.00951740        0.16507430        0.00026495        0.00033461        0.00196000        0.00030332        0.00003619
      35          0.550511        0.000000        0.52339295        0.01798150        0.00146927        0.01852995        0.01099690        0.00007335        0.00010694        0.00006020        0.00000483
      36          0.712598        0.000000        0.31530201        0.05942268        0.00010148        0.02542670        0.00002270        0.00000429        0.04947191        0.00000130        0.07768448
      37          0.714321        0.000000        0.31700541        0.01929422        0.00008007        0.06083368        0.00005453        0.00000889        0.05201831        0.00000816        0.07634275
      38          0.786107        0.000000        0.00041345        0.28624109        0.00000118        0.28153286        0.00000781        0.00001202        0.00019847        0.00001797        0.01421703
      39          0.857045        0.000000        0.02172622        0.00724229        0.00016819        0.01025689        0.00846313        0.00001190        0.22496521        0.00000959        0.00000657
      40          0.931816        0.000000        0.04743168        0.12301223        0.00010842        0.11752026        0.17248580        0.00050305        0.00147935        0.00048319        0.00000743
      41          0.946277        0.000000        0.05060453        0.29177397        0.00004292        0.28503431        0.03690717        0.00005492        0.00161420        0.00005913        0.00001517
      42          0.981434        0.000000        0.00501798        0.39405429        0.00009423        0.09883882        0.03463974        0.00012591        0.04866742        0.00015060        0.00144368
      43          0.987274        0.000000        0.00396233        0.10623091        0.00002881        0.40077730        0.03052943        0.00015688        0.04871279        0.00028940        0.00177365
      44          1.098463        0.000000        0.00019263        0.00081428        0.01075916        0.00183733        0.00037164        0.21695824        0.00006391        0.21222913        0.00000037
      45          1.198794        0.000000        0.00023168        0.00019008        0.75704945        0.00007744        0.00002721        0.00074314        0.00046883        0.00070031        0.00012633
      46          1.247795        0.000000        0.00000226        0.00783587        0.00006479        0.00695273        0.00000918        0.00043539        0.00011289        0.00019366        0.24107777
      47          1.301247        0.000000        0.00006499        0.00002303        0.18412637        0.00013270        0.00001267        0.01907561        0.00010856        0.29520761        0.00011942
      48          1.307449        0.000000        0.00003138        0.00001581        0.18469850        0.00001945        0.00001612        0.29483359        0.00026906        0.02098621        0.00018272
      49          1.474161        0.000000        0.29776077        0.04415228        0.00136507        0.04014107        0.10698125        0.00000823        0.04380194        0.00038571        0.00667586
      50          1.482295        0.000000        0.01594094        0.21144470        0.00041975        0.14089572        0.00482171        0.00032829        0.20318174        0.00046503        0.13151707
      51          1.483100        0.000000        0.00482521        0.12488591        0.00013154        0.19224623        0.00092155        0.00042577        0.24747014        0.00010289        0.11411350
      52          1.496134        0.000000        0.00552741        0.02492846        0.00129147        0.03569436        0.00197154        0.00074897        0.46033914        0.00047542        0.01701558
      53          1.625719        0.000000        0.00000724        0.00031535        0.00157406        0.00040043        0.00004014        0.31276520        0.00037737        0.31634627        0.00027675
      54          1.650885        0.000000        0.00025074        0.00036474        0.07793884        0.00087746        0.00043575        0.26756298        0.00074772        0.25203727        0.00116399
      55          1.691430        0.000000        0.00041490        0.00117529        0.60091956        0.00144792        0.00139712        0.09737548        0.00041733        0.03104864        0.00027995
      56          1.700707        0.000000        0.00043510        0.00089244        0.61044727        0.00038806        0.00042134        0.03109723        0.00051369        0.09888586        0.00050680
      57          1.736914        0.000000        0.00031873        0.47142661        0.00101845        0.48956950        0.00007200        0.00112757        0.00019268        0.00107568        0.02581011
      58          1.768810        0.000000        0.03393498        0.23833442        0.01281955        0.19116426        0.04398665        0.00166346        0.00289031        0.00064445        0.09805004
      59          1.779639        0.000000        0.03311500        0.17990538        0.00922839        0.24638128        0.03359284        0.00249671        0.00460235        0.00081595        0.10236061
      60          1.804640        0.000000        0.00025295        0.01429473        0.74654728        0.00034950        0.00157884        0.00259288        0.00014189        0.00181875        0.00139352
      61          1.827285        0.000000        0.00019795        0.00209565        0.00115316        0.00214174        0.00043826        0.16074783        0.00005051        0.17610095        0.00080426
      62          1.869829        0.000000        0.01172098        0.01290194        0.00170129        0.00758619        0.30283648        0.00017736        0.06941971        0.00044459        0.02140905
      63          1.875755        0.000000        0.01199176        0.00723657        0.00044696        0.00754134        0.27190308        0.00029852        0.07348584        0.00007517        0.02823204
      64          1.934338        0.000000        0.00459613        0.37151753        0.00070921        0.35905836        0.12324300        0.00022830        0.00862839        0.00182096        0.00010583
      65          2.018407        0.000000        0.05228598        0.15981754        0.00975887        0.14904631        0.10021515        0.00268263        0.02184699        0.00146708        0.04500318
      66          2.032849        0.000000        0.01916829        0.07069805        0.09121514        0.04830543        0.04402212        0.01664751        0.00715817        0.01884170        0.01497211
      67          2.053269        0.000000        0.03365502        0.10087264        0.04419907        0.12488348        0.08648486        0.00728125        0.01079361        0.01192952        0.02737914
      68          2.094409        0.000000        0.00087358        0.00031760        0.04287939        0.00051522        0.00339517        0.74680601        0.00034733        0.00877344        0.00032966
      69          2.102406        0.000000        0.00028029        0.00072706        0.04463132        0.00192569        0.00048903        0.01017331        0.00036353        0.73770843        0.00061899
      70          2.139760        0.000000        0.00151270        0.14045389        0.00004082        0.17104243        0.00944169        0.00067961        0.00054331        0.00078093        0.61714954
      71          2.164921        0.000000        0.12311912        0.04191686        0.00054513        0.01510623        0.71336775        0.00350219        0.00534251        0.00023885        0.00822180
      72          2.262021        0.000000        0.00093973        0.00131664        0.00215168        0.00150988        0.00130217        0.00255384        0.00228265        0.00186445        0.00009488
      73          2.283069        0.000000        0.00858472        0.02429338        0.00016585        0.02242705        0.00569853        0.00013232        0.02648854        0.00041292        0.00035205
      74          2.284277        0.000000        0.01306676        0.01884852        0.00053073        0.02354286        0.00785061        0.00032405        0.01534655        0.00001509        0.00048790
