# Projected DOS for atomic kind Ti at iteration step i = 0, E(Fermi) =     0.267945 a.u.
#     MO Eigenvalue [a.u.]      Occupation                 s                py                pz                px               d-2               d-1                d0               d+1               d+2               f-3               f-2               f-1                f0               f+1               f+2               f+3
       1         -1.903765        2.000000        0.83598535        0.00000067        0.00001281        0.00000081        0.00090400        0.00000052        0.03689220        0.00000034        0.00000015        0.00000388        0.00000009        0.00000008        0.00000031        0.00000003        0.00000000        0.00001062
       2         -1.900241        2.000000        0.81751070        0.00000112        0.00000139        0.00000154        0.00120183        0.00000119        0.04237895        0.00000093        0.00000038        0.00000431        0.00000002        0.00000029        0.00000017        0.00000043        0.00000000        0.00000992
       3         -0.980546        2.000000        0.00000183        0.44100818        0.00000095        0.48092446        0.00000149        0.00000057        0.00000084        0.00000059        0.00000018        0.01128388        0.00000002        0.00618399        0.00000003        0.00690955        0.00000002        0.01257725
       4         -0.978058        2.000000        0.00000037        0.45670052        0.00001017        0.46171450        0.00000033        0.00000019        0.00000011        0.00000019        0.00000266        0.01374368        0.00000002        0.00767587        0.00000001        0.00752484        0.00000004        0.01341863
       5         -0.971024        2.000000        0.00000014        0.45773014        0.00067025        0.46585047        0.00000022        0.00000040        0.00000014        0.00000041        0.00000558        0.00959537        0.00000008        0.00487449        0.00000330        0.00459125        0.00000001        0.00921605
       6         -0.968170        2.000000        0.00000529        0.48684544        0.00094074        0.43417874        0.00000359        0.00000009        0.00000198        0.00000007        0.00000043        0.01151543        0.00000020        0.00588687        0.00000360        0.00552048        0.00000000        0.01069243
       7         -0.964857        2.000000        0.00000265        0.00024298        0.94095383        0.00035628        0.00000103        0.00000011        0.00000124        0.00000032        0.00000000        0.00000829        0.00005039        0.00000428        0.00580808        0.00000392        0.00000001        0.00000889
       8         -0.961313        2.000000        0.00000057        0.00038595        0.94331574        0.00039404        0.00000005        0.00000011        0.00000088        0.00000025        0.00000000        0.00001153        0.00005573        0.00000527        0.00323041        0.00000749        0.00000003        0.00001511
       9         -0.395035        2.000000        0.47152017        0.00031465        0.00002115        0.00031762        0.00009645        0.00003527        0.00775220        0.00001244        0.00000081        0.00009167        0.00001303        0.00002748        0.00000073        0.00002458        0.00000000        0.00008562
      10         -0.353204        2.000000        0.03370857        0.00169878        0.00003830        0.00210711        0.21115078        0.00001846        0.19481522        0.00004678        0.00006912        0.00041746        0.00000739        0.00021598        0.00000085        0.00023440        0.00000000        0.00057883
      11         -0.326383        2.000000        0.00002501        0.13798431        0.00001525        0.10297597        0.00000531        0.00008079        0.00000559        0.00008082        0.00010373        0.04009869        0.00000496        0.02129658        0.00000034        0.01640712        0.00000006        0.03062086
      12         -0.323461        2.000000        0.00156293        0.10209572        0.00002735        0.13312540        0.00392503        0.00000232        0.00251404        0.00000192        0.00002110        0.03104675        0.00001523        0.01530853        0.00000093        0.02049428        0.00000002        0.03883885
      13          0.055695        2.000000        0.13441675        0.00004018        0.00000567        0.00005786        0.14428083        0.00004024        0.13293104        0.00000287        0.00004691        0.00000966        0.00000323        0.00003502        0.00000033        0.00004985        0.00000000        0.00002975
      14          0.068848        2.000000        0.01207962        0.00004485        0.00000965        0.00002006        0.07985512        0.00009420        0.35172800        0.00014198        0.00002976        0.00000360        0.00000220        0.00004829        0.00000097        0.00003175        0.00000000        0.00000232
      15          0.089320        2.000000        0.00000126        0.00010099        0.00000000        0.00007311        0.00011664        0.00000913        0.00000869        0.00001799        0.49561077        0.00001999        0.00000000        0.00000746        0.00000000        0.00001230        0.00000402        0.00001345
      16          0.120190        2.000000        0.00004966        0.00001162        0.00036147        0.00000577        0.00004515        0.24496824        0.00041285        0.14613445        0.00000011        0.00000360        0.00012145        0.00000155        0.00001081        0.00000503        0.00000046        0.00000359
      17          0.121079        2.000000        0.00002875        0.00007875        0.00002091        0.00008665        0.00000971        0.15147233        0.00015064        0.24052349        0.00001060        0.00003031        0.00000897        0.00003602        0.00000067        0.00003080        0.00000220        0.00003210
      18          0.176149        2.000000        0.00004582        0.08078251        0.00000671        0.02792303        0.00009210        0.00009374        0.00003506        0.00008820        0.00035881        0.03041989        0.00000024        0.00614409        0.00000037        0.02182949        0.00000483        0.00781553
      19          0.178561        2.000000        0.00012175        0.02536136        0.00000347        0.08150341        0.00037478        0.00006227        0.00006231        0.00006441        0.00016886        0.00694220        0.00000121        0.02150599        0.00000003        0.00617057        0.00000169        0.03020312
      20          0.199283        2.000000        0.00020737        0.00001004        0.07242605        0.00003899        0.00037633        0.00079504        0.00026954        0.00035454        0.00000018        0.00000854        0.00790099        0.00000644        0.00280324        0.00000443        0.00000314        0.00001124
      21          0.245533        2.000000        0.00017902        0.00003291        0.02073332        0.00000486        0.00184079        0.00050888        0.00094551        0.00060837        0.00000149        0.00001348        0.05327706        0.00000075        0.00204557        0.00001674        0.00000769        0.00000033
      22          0.256858        2.000000        0.00001375        0.00122944        0.00000098        0.00104844        0.00008019        0.00093211        0.00004853        0.00124409        0.02642259        0.00473639        0.00002562        0.01634358        0.00000024        0.01934413        0.00001189        0.00428041
      23          0.258926        2.000000        0.00010769        0.00121060        0.00000356        0.00143593        0.00100392        0.00049219        0.00068559        0.00043116        0.00004487        0.00502590        0.00001689        0.02353599        0.00000039        0.01942599        0.00000262        0.00458824
      24          0.267945        2.000000        0.00002584        0.00014734        0.00000005        0.00009444        0.00010197        0.00006575        0.00004552        0.00011599        0.14799782        0.00059414        0.00000182        0.00243730        0.00000001        0.00256942        0.00000810        0.00050628
      25          0.318214        0.000000        0.00442553        0.00001911        0.00009437        0.00004425        0.71134119        0.00074000        0.22179097        0.00009122        0.00000091        0.00000303        0.00019768        0.00006792        0.00000873        0.00000697        0.00000003        0.00002147
      26          0.331938        0.000000        0.00148736        0.00001828        0.00001262        0.00001468        0.00128568        0.44018926        0.01872934        0.45328255        0.04613426        0.00001179        0.00003029        0.00001659        0.00000055        0.00000439        0.00000027        0.00000538
      27          0.333449        0.000000        0.00078397        0.00000214        0.00000049        0.00000237        0.00108879        0.23917659        0.00968859        0.15195389        0.47508256        0.00000047        0.00000102        0.00001433        0.00000005        0.00000719        0.00000346        0.00000276
      28          0.335203        0.000000        0.00077613        0.00003517        0.00000273        0.00002015        0.00103925        0.23658276        0.00942078        0.36747313        0.28255856        0.00003851        0.00000145        0.00004738        0.00000019        0.00011874        0.00000223        0.00001689
      29          0.337613        0.000000        0.06365306        0.00001646        0.00003985        0.00001197        0.03588118        0.03846368        0.72099538        0.01000489        0.00025102        0.00001053        0.00005204        0.00005421        0.00000190        0.00005942        0.00000000        0.00001262
      30          0.392743        0.000000        0.00845065        0.00001294        0.00002168        0.00000194        0.77928855        0.00021793        0.05852674        0.00007290        0.00219174        0.00001604        0.00001269        0.00000226        0.00000070        0.00001548        0.00000003        0.00000156
      31          0.410888        0.000000        0.00000944        0.00000391        0.00000003        0.00000285        0.00198244        0.00018814        0.00018214        0.00005922        0.81017693        0.00000028        0.00000004        0.00000747        0.00000000        0.00000088        0.00000630        0.00000220
      32          0.497702        0.000000        0.00005518        0.00020812        0.00000292        0.00019185        0.00051770        0.31376009        0.00255114        0.29589655        0.00000099        0.00005694        0.00000095        0.00001737        0.00000059        0.00001744        0.00000279        0.00004692
      33          0.503943        0.000000        0.00025627        0.00000485        0.00002473        0.00000767        0.00326835        0.29479824        0.01308731        0.30048140        0.00000089        0.00000180        0.00000787        0.00000003        0.00000083        0.00000066        0.00000082        0.00000275
      34          0.513967        0.000000        0.07403092        0.00004976        0.00002183        0.00003651        0.14361678        0.00952008        0.30055264        0.00574837        0.00003704        0.00001299        0.00000793        0.00002877        0.00000089        0.00000642        0.00000005        0.00004033
      35          0.550511        0.000000        0.22611919        0.00002079        0.00005171        0.00000332        0.01402535        0.00269159        0.18323859        0.00112529        0.00002148        0.00000307        0.00001432        0.00003498        0.00000273        0.00002444        0.00000001        0.00000724
      36          0.712598        0.000000        0.00007038        0.19943709        0.00010413        0.08344071        0.00003515        0.00001857        0.00004868        0.00003803        0.00029256        0.07963864        0.00002302        0.04194653        0.00000202        0.03820129        0.00000090        0.02926476
      37          0.714321        0.000000        0.00001331        0.08522084        0.00001946        0.19819859        0.00002754        0.00028701        0.00002758        0.00026466        0.00003912        0.02841271        0.00002723        0.04011392        0.00000100        0.04225385        0.00000300        0.07944416
      38          0.786107        0.000000        0.00007779        0.00007811        0.00000000        0.00014856        0.00018068        0.00002449        0.00015166        0.00001058        0.41651858        0.00001111        0.00000005        0.00000860        0.00000000        0.00008334        0.00003250        0.00003206
      39          0.857045        0.000000        0.10519036        0.00000640        0.00024740        0.00001242        0.39511201        0.00001903        0.22623387        0.00017243        0.00010462        0.00000589        0.00002908        0.00000265        0.00000444        0.00000331        0.00000003        0.00000606
      40          0.931816        0.000000        0.24317715        0.00084469        0.00104749        0.00049206        0.01644044        0.00002491        0.27446580        0.00003110        0.00001249        0.00002550        0.00008248        0.00016861        0.00005265        0.00008371        0.00000009        0.00001942
      41          0.946277        0.000000        0.24451947        0.00015301        0.00025282        0.00070621        0.01059140        0.00014864        0.07709582        0.00006514        0.00001009        0.00003181        0.00002402        0.00016876        0.00001433        0.00007152        0.00000004        0.00004059
      42          0.981434        0.000000        0.00079083        0.06241073        0.00047072        0.24897995        0.00015007        0.00002000        0.00138449        0.00009480        0.00002996        0.00610902        0.00001573        0.03230087        0.00002071        0.04893042        0.00000896        0.01525008
      43          0.987274        0.000000        0.00042620        0.24687612        0.00062643        0.05996021        0.00004667        0.00013140        0.00015480        0.00004530        0.00004758        0.01427588        0.00003216        0.04911734        0.00002622        0.02958332        0.00003182        0.00615705
      44          1.098463        0.000000        0.00049568        0.00018677        0.46495494        0.00000748        0.00023942        0.00005794        0.00020820        0.00016926        0.00000005        0.00000044        0.07465108        0.00011664        0.01546730        0.00020402        0.00001202        0.00000207
      45          1.198794        0.000000        0.00017265        0.00001206        0.17349132        0.00003810        0.00014650        0.00005085        0.00024889        0.00024390        0.00000280        0.00009659        0.06039890        0.00002054        0.00525218        0.00016632        0.00002431        0.00001962
      46          1.247795        0.000000        0.00000685        0.00003314        0.00000078        0.00006044        0.00001852        0.00005631        0.00000964        0.00010802        0.74296613        0.00000745        0.00000054        0.00000176        0.00000002        0.00002293        0.00000301        0.00001991
      47          1.301247        0.000000        0.00002408        0.00001061        0.00010573        0.00003535        0.00005369        0.30836426        0.00005898        0.19233384        0.00000619        0.00000729        0.00001550        0.00001816        0.00002242        0.00003102        0.00001379        0.00002812
      48          1.307449        0.000000        0.00002437        0.00002370        0.00013827        0.00000145        0.00002860        0.18150344        0.00000483        0.31643268        0.00046550        0.00005342        0.00004423        0.00007775        0.00001535        0.00006909        0.00003533        0.00002918
      49          1.474161        0.000000        0.03608269        0.00022719        0.00016367        0.00400213        0.14762095        0.00035291        0.25850486        0.00000932        0.00000731        0.00527538        0.00026651        0.00246947        0.00001051        0.00049620        0.00000593        0.00323278
      50          1.482295        0.000000        0.00133588        0.01607519        0.00016503        0.05929510        0.00724147        0.00022940        0.01053827        0.00045421        0.00001919        0.08507126        0.00001776        0.02942635        0.00003711        0.01508559        0.00016729        0.06582596
      51          1.483100        0.000000        0.00373931        0.05389678        0.00005716        0.01337088        0.06597741        0.00029602        0.00223302        0.00017140        0.00000370        0.05376217        0.00016912        0.01095693        0.00000538        0.02757802        0.00012792        0.08253203
      52          1.496134        0.000000        0.02781950        0.00682256        0.00021890        0.00281004        0.37362552        0.00038731        0.01189879        0.00088655        0.00000319        0.00904675        0.00029312        0.00209213        0.00006142        0.00380276        0.00002133        0.01221778
      53          1.625719        0.000000        0.00000011        0.00004109        0.00069752        0.00006146        0.00000015        0.00011339        0.00000060        0.00000390        0.00014772        0.00003632        0.00016981        0.00001007        0.00016095        0.00000575        0.36600914        0.00043921
      54          1.650885        0.000000        0.00021352        0.00003005        0.28917501        0.00012169        0.00033156        0.00130871        0.00020839        0.00351245        0.00000045        0.00040944        0.02477958        0.00221621        0.07499349        0.00044769        0.00076540        0.00010686
      55          1.691430        0.000000        0.00009952        0.00032608        0.00285699        0.00034091        0.00038011        0.10155397        0.00004131        0.15687236        0.00000710        0.00007113        0.00015664        0.00042162        0.00078264        0.00107272        0.00050987        0.00003083
      56          1.700707        0.000000        0.00019142        0.00009593        0.00167423        0.00001142        0.00041838        0.15790307        0.00019711        0.09348173        0.00000829        0.00000995        0.00063139        0.00086490        0.00040707        0.00032237        0.00017967        0.00001529
      57          1.736914        0.000000        0.00000255        0.00004686        0.00000734        0.00001791        0.00007456        0.00017816        0.00003000        0.00062430        0.00344034        0.00007529        0.00000511        0.00128296        0.00000222        0.00191531        0.00158494        0.00010081
      58          1.768810        0.000000        0.00001968        0.00545914        0.00133341        0.00653688        0.00015683        0.00027022        0.00004948        0.00026683        0.00000383        0.02247643        0.00203756        0.14398295        0.00063438        0.16323126        0.00006258        0.02999042
      59          1.779639        0.000000        0.00009050        0.00487946        0.00052056        0.00530519        0.00003702        0.00083348        0.00005294        0.00071662        0.00000431        0.02101716        0.00189210        0.17768580        0.00028982        0.15574956        0.00093881        0.01748816
      60          1.804640        0.000000        0.00015151        0.00007683        0.01236476        0.00003877        0.00005354        0.00010300        0.00018920        0.00020404        0.00000016        0.00017018        0.19593736        0.00033825        0.01130032        0.00783457        0.00072339        0.00154377
      61          1.827285        0.000000        0.00000080        0.00032010        0.00001280        0.00001864        0.00000041        0.00015415        0.00000108        0.00025833        0.00007591        0.00031581        0.00020912        0.00003701        0.00003311        0.00012259        0.65441941        0.00029041
      62          1.869829        0.000000        0.00004152        0.09956357        0.00003320        0.02539352        0.00005319        0.00025030        0.00003596        0.00010835        0.00027738        0.21006489        0.00005301        0.09920007        0.00000230        0.03405099        0.00078208        0.10189207
      63          1.875755        0.000000        0.00006120        0.02584667        0.00004446        0.09483217        0.00014854        0.00007525        0.00004599        0.00019273        0.00004630        0.10877168        0.00005000        0.04782641        0.00002010        0.12172470        0.00022327        0.19887925
      64          1.934338        0.000000        0.03429504        0.00007456        0.00056503        0.00006394        0.07295625        0.00017599        0.01666580        0.00003047        0.00000165        0.00184988        0.00085535        0.00053584        0.00038507        0.00092706        0.00000014        0.00071026
      65          2.018407        0.000000        0.00003427        0.01558424        0.00537627        0.01659229        0.00005814        0.00039043        0.00004813        0.00077552        0.00008297        0.02107063        0.04310234        0.17763870        0.00149739        0.15372190        0.00002510        0.02187792
      66          2.032849        0.000000        0.00005893        0.00546876        0.05646595        0.00755006        0.00011455        0.00106680        0.00015382        0.00009494        0.00003222        0.00388102        0.43797487        0.09870843        0.01710421        0.02883498        0.00000657        0.01145535
      67          2.053269        0.000000        0.00009847        0.01310667        0.02602645        0.01016154        0.00000969        0.00092337        0.00021096        0.00004505        0.00004724        0.02394092        0.19842242        0.07961432        0.00889595        0.18081629        0.00003209        0.01016999
      68          2.094409        0.000000        0.00050978        0.00007643        0.00043855        0.00019537        0.00016422        0.00943991        0.00004359        0.18023171        0.00000391        0.00019795        0.00128275        0.00043745        0.00148560        0.00054753        0.00024491        0.00046292
      69          2.102406        0.000000        0.00006459        0.00017220        0.00164012        0.00006456        0.00047491        0.18291582        0.00002627        0.00706749        0.00004114        0.00056098        0.00687723        0.00052110        0.00077430        0.00094534        0.00075339        0.00018290
      70          2.139760        0.000000        0.00085275        0.00000627        0.00000319        0.00007286        0.00003155        0.00006488        0.00015534        0.00011152        0.05461186        0.00073262        0.00001425        0.00117205        0.00000388        0.00000265        0.00020990        0.00030949
      71          2.164921        0.000000        0.04786620        0.00017695        0.00005758        0.00019792        0.01523825        0.00011949        0.02130876        0.00057292        0.00060410        0.00018987        0.00034278        0.00001818        0.00103635        0.00012014        0.00000336        0.00078671
      72          2.262021        0.000000        0.00020809        0.01074029        0.02526422        0.00310349        0.00029003        0.00047653        0.00007410        0.00032703        0.00000664        0.02422491        0.01260262        0.00042055        0.90325783        0.00299950        0.00004764        0.00194061
      73          2.283069        0.000000        0.00051547        0.03778002        0.00023255        0.20692491        0.00002240        0.00000876        0.00002858        0.00040339        0.00005925        0.01264654        0.00021463        0.05699993        0.00571869        0.00071885        0.00019998        0.58897069
      74          2.284277        0.000000        0.00018440        0.19163977        0.00147339        0.04975779        0.00009877        0.00030214        0.00005766        0.00003343        0.00013392        0.55734336        0.00098259        0.00072483        0.03992087        0.05420034        0.00004305        0.02309061
