      56
 i =       40, time =       40.000, E =      -152.8187555202
  C         0.5295702991        0.7064429461        7.5273693890
  C         1.6499615834        2.7240620030        7.4762045285
  C         5.2583071446        0.6315785945        7.4806492288
  C         4.2066417833        2.6920592815        7.4927238374
  C         7.7236949500        0.5844949610        7.5304930986
  C         6.4937362803        2.6909623866        7.4474986836
  C         8.8507437173        2.6512577998        7.4137600800
  C        12.4373096252        0.7309774634        7.4038330356
  C        11.3689085427        2.7023446206        7.3127847803
  C        13.6570298915        2.7672349522        7.2822959048
  C         2.9886427630        4.9185334632        7.4784948664
  C         1.8191159078        6.9031063080        7.4188563885
  C         0.7054401742        8.9393805913        7.5332477195
  C         4.2058023234        6.8373743044        7.5517975476
  C         2.9651864548        8.9254881840        7.6718671703
  C         5.2537103635        8.8117563895        7.5806629246
  C        10.0789923548        4.9101003058        7.6040080350
  C         8.9105692145        6.8288817398        7.6201542549
  C         7.8554652690        8.9019917476        7.5609475446
  C         6.5304406720       11.0010360903        7.5273069498
  C        11.3355641394        6.7783421316        7.6063084330
  C        10.1512480420        8.8436252573        7.5931590191
  C        12.4237177735        8.8260824035        7.5118988994
  C        13.6925673341       11.0641510797        7.4396108586
  N         5.3801785163       11.6353858269        7.3792784099
  N         6.5843906755        9.5575061553        7.5729046445
  N         7.8244220415        7.5862536885        7.5971300549
  N         8.9111848711        5.5087844050        7.5488102835
  N         7.7105602816       11.5948234572        7.6381316294
  N         9.0140452461        9.5812572997        7.4351655404
  N        10.1203921254        7.4949675109        7.6666931065
  N        11.2920620655        5.4627842112        7.8047452765
  N        11.2898626280        9.5438821043        7.5763896387
  N        12.4701839676        7.4480708994        7.4757727305
  N        13.6950414186        9.6181219221        7.4313913283
  N        12.5075435035       11.6594861462        7.4422889940
  N         0.5294278737        3.4045181790        7.3281873012
  N         1.7012303064        1.4048184954        7.5465912579
  N         2.9184924043        3.4482909477        7.4729909552
  N         5.3691597105        3.4050596929        7.5880036972
  N         7.7060223555        3.3282328406        7.4510745317
  N         8.8621126552        1.2935031680        7.5369524394
  N         6.4814267714        1.3066392366        7.4914273934
  N         4.1528809786        1.3496020261        7.4226461842
  N        10.0801368925        3.4050949021        7.4602732153
  N        11.2691322196        1.3267441025        7.3486435460
  N        12.4172799658        3.3996163170        7.1720550635
  N        13.6103623911        1.4261958148        7.4306635717
  N         5.3427541750        7.4845703914        7.5219409965
  N         4.1471125520        9.5261530443        7.6227141545
  N         0.5994067004       11.7312773473        7.4865338650
  N         1.8352160414        9.6586066804        7.5504702652
  N         3.0213762626        7.5463653237        7.6804711086
  N         4.2178798601        5.4892304580        7.5622023460
  N         1.7812201438        5.5399137934        7.3120419619
  N         0.6999788936        7.6113369821        7.3997412945
