      56
 i =       16, time =       16.000, E =      -152.8405671370
  C         0.6125066431        0.6797071536        7.4950160206
  C         1.7346773418        2.7741823591        7.4774832181
  C         5.3561526831        0.6675373054        7.4441829863
  C         4.2018303588        2.6752357015        7.5339072422
  C         7.7190170743        0.6405894884        7.5074604247
  C         6.5387171868        2.7141341787        7.5445918776
  C         8.8483429577        2.6568644222        7.5154628598
  C        12.4519216553        0.6826836626        7.4549038383
  C        11.3201979351        2.7024186615        7.4244011661
  C        13.6497434212        2.7564387196        7.4409769205
  C         2.9558944093        4.8367061287        7.4566571587
  C         1.7795610677        6.8671317391        7.5488982034
  C         0.6852718610        8.8517730849        7.4520952988
  C         4.1386641317        6.8810992493        7.5474090712
  C         3.0443062349        8.9350175429        7.5242690144
  C         5.3588045925        8.8740835558        7.5250122078
  C        10.0772906064        4.8047572880        7.5666615894
  C         8.9482551015        6.8345920057        7.5322158129
  C         7.7673582598        8.8481542342        7.5020958515
  C         6.4857150799       11.0126343552        7.5306420511
  C        11.2881367192        6.8539507974        7.6134412209
  C        10.1450761119        8.9582714030        7.4950911698
  C        12.4920303610        8.8615787332        7.4733655657
  C        13.6441931222       11.0084453770        7.5006319330
  N         5.3325584613       11.6537937977        7.4516954883
  N         6.5732981325        9.5965613080        7.5783540194
  N         7.7657724023        7.5183146577        7.5289902760
  N         8.9672582678        5.4981287700        7.5116698333
  N         7.6518116204       11.6565358966        7.5462306228
  N         8.9238463980        9.5476173133        7.4629086001
  N        10.1114978049        7.5723290988        7.5711919586
  N        11.2177763680        5.4975156371        7.5946268761
  N        11.3302524610        9.5301104650        7.5655516963
  N        12.4599653695        7.5237083457        7.4581942662
  N        13.7003539051        9.5880540176        7.4489407069
  N        12.4342922825       11.6445722537        7.5034511833
  N         0.5866051367        3.4373625560        7.4572672323
  N         1.7552607735        1.4164127429        7.5293130848
  N         2.9915366761        3.4212335689        7.4907411058
  N         5.3925992457        3.3428698527        7.5263319505
  N         7.7171114488        3.3377743986        7.4241528036
  N         8.8890661732        1.3266280589        7.4845161483
  N         6.5535987182        1.3419799393        7.4902117738
  N         4.2080285410        1.3335609098        7.4905789423
  N        10.0657636364        3.3730413109        7.4965711452
  N        11.3139618003        1.3742905014        7.4300257327
  N        12.4143173583        3.4058108641        7.3571317016
  N        13.6542705864        1.3612450141        7.4898548186
  N         5.2988657980        7.5543148947        7.4817210797
  N         4.2359710981        9.5592975132        7.5225140921
  N         0.5404286262       11.6638499224        7.4935926243
  N         1.8107843180        9.5438517097        7.5575793185
  N         2.9682223968        7.5581198917        7.5788198949
  N         4.0969989592        5.5274474498        7.5195240611
  N         1.8002651033        5.5304588021        7.3987409354
  N         0.6503988129        7.5345376922        7.4782273029
