      56
 i =       21, time =       21.000, E =      -152.8298794353
  C         0.5801671754        0.7126471361        7.5035443270
  C         1.7151354875        2.7780519454        7.4805923754
  C         5.3693974750        0.6647344485        7.4422019852
  C         4.1771576419        2.6975763897        7.5301780866
  C         7.6910850747        0.6540553162        7.5021852886
  C         6.5459091042        2.7067861444        7.5201848622
  C         8.8404929865        2.6365967897        7.4885943495
  C        12.4698328698        0.6842261617        7.4474797762
  C        11.3096972539        2.6707736207        7.3986863940
  C        13.6222470143        2.7352485745        7.4120095940
  C         2.9571618472        4.8307099205        7.4514704870
  C         1.7728943326        6.8674213081        7.5304387883
  C         0.7061856054        8.8592649288        7.4668282123
  C         4.1468836376        6.8862399253        7.5460324486
  C         3.0492267773        8.9190255137        7.5492646321
  C         5.3446095142        8.8579653784        7.5357890940
  C        10.0821785310        4.8214658284        7.5765653671
  C         8.9582011119        6.8439913720        7.5452896634
  C         7.7942857984        8.8485551968        7.5140378374
  C         6.4931026366       10.9871112933        7.5354414763
  C        11.2755996858        6.8558370888        7.6156513066
  C        10.1637564884        8.9660067581        7.5118092070
  C        12.4730275324        8.8437971299        7.4775991027
  C        13.6629918650       11.0218749213        7.4921757786
  N         5.3344273167       11.6431606886        7.4330754089
  N         6.5408848669        9.5685321685        7.5927529038
  N         7.7720766126        7.5348460326        7.5368527287
  N         8.9514617701        5.5039415439        7.5209546694
  N         7.6554565104       11.6471862197        7.5642643929
  N         8.9576437834        9.5423964040        7.4479003760
  N        10.1267259815        7.5527339737        7.5963611829
  N        11.2195175556        5.4948821435        7.6412603319
  N        11.3306611399        9.5057452761        7.5750751273
  N        12.4581949757        7.5307805380        7.4535302661
  N        13.6770607751        9.5665215029        7.4326051437
  N        12.4589976035       11.6750183766        7.4973252432
  N         0.5925487084        3.4408103470        7.4365633952
  N         1.7431622634        1.4124824572        7.5318691228
  N         2.9884952967        3.4344983745        7.4846211367
  N         5.3930338925        3.3235342497        7.5453051299
  N         7.7079719829        3.3130272878        7.4266141104
  N         8.8851927257        1.3171363657        7.4960244656
  N         6.5547739367        1.3345725921        7.4970722359
  N         4.1968073760        1.3483543980        7.4848004341
  N        10.0900382450        3.3982940513        7.4964853116
  N        11.3205199212        1.3822428094        7.4087019747
  N        12.4202177533        3.3996432561        7.3163098729
  N        13.6387560796        1.3527854264        7.4786856611
  N         5.3265225137        7.5553802419        7.4831653369
  N         4.2341228694        9.5760338075        7.5344264020
  N         0.5206336698       11.6858799563        7.4903849072
  N         1.8247047676        9.5612974237        7.5609832084
  N         2.9597017323        7.5440076127        7.6081472806
  N         4.0736372539        5.5433231735        7.5304072719
  N         1.8326807691        5.5495953916        7.3794476500
  N         0.6624980242        7.5567156025        7.4653935771
