      56
 i =        4, time =        4.000, E =      -152.8562159843
  C         0.6507564846        0.6495248399        7.4963597547
  C         1.7214889972        2.6807804008        7.4912561755
  C         5.3284844566        0.6545805156        7.4824035329
  C         4.2813287628        2.6597978125        7.5130663538
  C         7.7763162936        0.6510385819        7.5056398855
  C         6.5506481926        2.7401458774        7.5249080340
  C         8.8337101594        2.6720066654        7.5152914527
  C        12.4306011746        0.6475483734        7.4870978275
  C        11.3497742090        2.7024122378        7.4824124040
  C        13.6588276393        2.7873555048        7.4877603892
  C         2.9716073313        4.9084736646        7.4873912265
  C         1.7857803027        6.8280923734        7.5237661531
  C         0.6860911735        8.8570801934        7.4780951087
  C         4.1706569871        6.8308283192        7.5172861545
  C         2.9784458466        8.9510173782        7.5007676924
  C         5.3050335013        8.8636954803        7.5053934981
  C        10.0979456756        4.8551039671        7.5207155320
  C         8.8900645576        6.8383555970        7.5076572592
  C         7.8143266260        8.8507178811        7.4961769000
  C         6.5268993036       11.0634702362        7.5090320949
  C        11.3141097314        6.8314934325        7.5393177932
  C        10.0814984681        8.9216694647        7.4922499808
  C        12.4182540884        8.8534257935        7.4895639098
  C        13.6139265136       11.0437113306        7.5030939582
  N         5.3399754171       11.6820947385        7.4894345694
  N         6.5635077721        9.6004452168        7.5220672181
  N         7.7613689860        7.4920483316        7.5082387879
  N         8.9242870784        5.5031025029        7.5003422143
  N         7.6951060401       11.6658083815        7.5101243899
  N         8.9149809576        9.5650504838        7.4920095675
  N        10.0974703337        7.5498117999        7.5175201601
  N        11.2703850764        5.5120685953        7.5184253061
  N        11.2940745514        9.5829004161        7.5190687088
  N        12.4501377132        7.5030048498        7.4884288514
  N        13.6904660693        9.5958654870        7.4879467934
  N        12.4563792573       11.6522382957        7.5031131380
  N         0.5560368948        3.4120959255        7.4904875047
  N         1.7580707825        1.3788803242        7.5098893464
  N         2.9807458639        3.4123051921        7.4986001625
  N         5.3563198182        3.3964202531        7.5022774430
  N         7.7070893113        3.3981690281        7.4715234645
  N         8.8787156530        1.3313518831        7.4913434279
  N         6.5325828469        1.3530751210        7.4942280986
  N         4.1999624379        1.3390991417        7.4980129971
  N        10.0736011253        3.3890553367        7.4982065210
  N        11.3114194763        1.3427140143        7.4830892129
  N        12.5050811591        3.4034153656        7.4630751787
  N        13.6684577972        1.3838828326        7.5012686500
  N         5.2984827490        7.5145963439        7.4940584830
  N         4.1532133699        9.5581654030        7.5032607199
  N         0.6092023523       11.6682635797        7.4992242646
  N         1.8322387113        9.5486002868        7.5179918337
  N         2.9863069898        7.5618955795        7.5188434046
  N         4.1615582182        5.5054595367        7.5024992666
  N         1.7714311144        5.4985392468        7.4713003285
  N         0.6201610706        7.5014850473        7.4963415596
