      56
 i =       26, time =       26.000, E =      -152.8528177553
  C         0.5752401879        0.7343247562        7.5159064436
  C         1.6952652494        2.7418299704        7.4867005787
  C         5.3492119596        0.6496736190        7.4492626076
  C         4.1991722909        2.7009857330        7.5207855266
  C         7.7048767406        0.6455825369        7.4987971986
  C         6.5473975165        2.6960233948        7.4854265071
  C         8.8427823063        2.6223330514        7.4531779454
  C        12.4645883135        0.6598609925        7.4404567861
  C        11.2998373165        2.6640590347        7.3725120570
  C        13.5925245076        2.7498296215        7.3760186160
  C         2.9650193770        4.8742258048        7.4530180784
  C         1.7815406952        6.8506445366        7.4986315995
  C         0.7238614019        8.8927096833        7.4925992406
  C         4.1687965884        6.8665597391        7.5392412204
  C         3.0258008471        8.9258878080        7.5827776279
  C         5.3181269873        8.8467531261        7.5484164623
  C        10.0939964176        4.8514846809        7.5829232583
  C         8.9393471236        6.8553282756        7.5613244914
  C         7.8473539022        8.8602606869        7.5297867539
  C         6.5118496953       10.9736098667        7.5371383359
  C        11.2904157643        6.8398900588        7.6054222423
  C        10.1466105043        8.9417891387        7.5354878851
  C        12.4414114061        8.8191413183        7.4872243055
  C        13.6446697118       11.0341185348        7.4791721071
  N         5.3438469597       11.6513885712        7.4137022392
  N         6.5210758966        9.5396538763        7.5997345189
  N         7.7947075627        7.5372530119        7.5468239224
  N         8.9159054197        5.5204093852        7.5311081361
  N         7.6641436233       11.6409443292        7.5836821668
  N         8.9930143000        9.5453683753        7.4343137445
  N        10.1353378159        7.5296005875        7.6212152968
  N        11.2439220182        5.5073258075        7.6944347616
  N        11.3319061932        9.5147789903        7.5802963054
  N        12.4472065510        7.5085238674        7.4548770457
  N        13.6636233829        9.5557737845        7.4192891831
  N        12.4954071142       11.7123850220        7.4867210827
  N         0.5600990338        3.4323161654        7.4102432506
  N         1.7110688721        1.4036905515        7.5322312675
  N         2.9688248077        3.4465403980        7.4777329914
  N         5.3657456420        3.3238301328        7.5660648282
  N         7.7017411492        3.3066802389        7.4371013825
  N         8.8670059109        1.2960104873        7.5127798593
  N         6.5347178093        1.3260949472        7.5044405605
  N         4.1883646071        1.3669778380        7.4749025935
  N        10.1041814787        3.4170332725        7.4942033074
  N        11.3258540128        1.3598913093        7.3890395405
  N        12.4737095165        3.3797348815        7.2773372830
  N        13.6251162172        1.3776748926        7.4641839976
  N         5.3440893316        7.5239174880        7.4890719116
  N         4.1886858274        9.5804179300        7.5509626738
  N         0.5377869465       11.7280261736        7.4873198387
  N         1.8670052127        9.5815665409        7.5581767076
  N         2.9719876043        7.5506510462        7.6384524186
  N         4.0834326700        5.5565027630        7.5426554038
  N         1.8447991732        5.5549977996        7.3620535749
  N         0.6618534309        7.5648955383        7.4480943297
