      56
 i =        5, time =        5.000, E =      -152.8483001114
  C         0.6547498890        0.6471319322        7.4953198610
  C         1.7259345225        2.6840080002        7.4892401854
  C         5.3279867947        0.6531910299        7.4780621288
  C         4.2835866894        2.6562571750        7.5160662451
  C         7.7805298526        0.6478655308        7.5066678515
  C         6.5518830549        2.7369340170        7.5302923195
  C         8.8368110602        2.6710507455        7.5184338603
  C        12.4267685535        0.6454634983        7.4837438556
  C        11.3437259458        2.7072685639        7.4779817097
  C        13.6590598789        2.7927229737        7.4845823506
  C         2.9699478856        4.9091904529        7.4843553434
  C         1.7884295108        6.8286133586        7.5288311673
  C         0.6838044769        8.8590992332        7.4732098782
  C         4.1672394000        6.8319011359        7.5211655044
  C         2.9806225637        8.9560511334        7.5013122569
  C         5.3152605181        8.8674286357        7.5068226515
  C        10.0970253030        4.8463692838        7.5255977080
  C         8.8913066024        6.8392589055        7.5094499308
  C         7.8120837030        8.8517395693        7.4955189894
  C         6.5233737447       11.0628120523        7.5112088398
  C        11.3153320105        6.8319852588        7.5482581253
  C        10.0802713043        8.9225205653        7.4907112637
  C        12.4278578681        8.8551683130        7.4871585516
  C        13.6064034509       11.0390460556        7.5036274288
  N         5.3377604638       11.6840051962        7.4865965945
  N         6.5691187727        9.6036971322        7.5274725726
  N         7.7638383711        7.4889264665        7.5101991582
  N         8.9280921151        5.5034281193        7.5006193357
  N         7.6880751411       11.6654541120        7.5127831699
  N         8.9110902519        9.5638145764        7.4901386503
  N        10.0975229921        7.5546992641        7.5215465130
  N        11.2659438951        5.5136453949        7.5231524893
  N        11.3012772101        9.5838905257        7.5239681217
  N        12.4509170035        7.5013208360        7.4853492930
  N        13.6970138420        9.5981432266        7.4849161165
  N        12.4524707317       11.6485643880        7.5036435239
  N         0.5522597831        3.4141534628        7.4883096538
  N         1.7562917332        1.3857973272        7.5119763279
  N         2.9812743218        3.4114218018        7.4982545416
  N         5.3535153059        3.3938907148        7.5031080135
  N         7.7085267382        3.3960276235        7.4651591269
  N         8.8771636473        1.3288231062        7.4892505710
  N         6.5318923745        1.3514580034        7.4927147448
  N         4.2022913507        1.3372812955        7.4975051924
  N        10.0680567599        3.3829891124        7.4978608002
  N        11.3114933779        1.3425469532        7.4787461090
  N        12.5033604458        3.4034705181        7.4541473024
  N        13.6697176042        1.3874074437        7.5009676229
  N         5.2928902050        7.5155513988        7.4924591805
  N         4.1580960804        9.5553851980        7.5045962487
  N         0.6081285056       11.6678315905        7.4988680641
  N         1.8345029521        9.5443491673        7.5225214276
  N         2.9876066140        7.5680894075        7.5232327886
  N         4.1593940774        5.5065315349        7.5034760069
  N         1.7682550696        5.4986974359        7.4641154710
  N         0.6194732740        7.4999717998        7.4952273181
