      56
 i =       39, time =       39.000, E =      -152.8171480535
  C         0.5337297796        0.7104488505        7.5286287133
  C         1.6467259706        2.7199127723        7.4786841682
  C         5.2560086573        0.6332716581        7.4797096735
  C         4.2132598411        2.6883186917        7.4938808630
  C         7.7261345938        0.5825504260        7.5261643589
  C         6.4914126396        2.6886301731        7.4451175353
  C         8.8523896939        2.6488817349        7.4115911559
  C        12.4401890727        0.7271066284        7.4073353825
  C        11.3694651510        2.7029748301        7.3156228120
  C        13.6609159533        2.7699887165        7.2893107101
  C         2.9891761616        4.9248821401        7.4770234598
  C         1.8185082731        6.8982071096        7.4225287546
  C         0.7102587853        8.9395432411        7.5343969021
  C         4.2058640009        6.8404945857        7.5479058962
  C         2.9678073138        8.9281919179        7.6671909580
  C         5.2500497945        8.8141230865        7.5785184756
  C        10.0803067793        4.9145062408        7.6015942925
  C         8.9094184914        6.8294433222        7.6153344996
  C         7.8620117368        8.8965937164        7.5603195849
  C         6.5287868455       10.9994825412        7.5281414789
  C        11.3376774621        6.7818302157        7.6019872073
  C        10.1507549227        8.8410544583        7.5916129429
  C        12.4215051973        8.8203822787        7.5110505396
  C        13.6859589420       11.0631296619        7.4418804015
  N         5.3810915331       11.6396362389        7.3805155122
  N         6.5812873786        9.5521894657        7.5768330417
  N         7.8265552167        7.5823492744        7.5919103105
  N         8.9058359476        5.5138638642        7.5482926136
  N         7.7069948042       11.5995304675        7.6340305092
  N         9.0140549857        9.5824013799        7.4320614425
  N        10.1197336460        7.4995563373        7.6646309461
  N        11.2940483063        5.4712134161        7.8000876917
  N        11.2910875820        9.5499981387        7.5771730575
  N        12.4635092165        7.4435276654        7.4736298563
  N        13.6916110310        9.6131216041        7.4276859001
  N        12.5098440421       11.6637119003        7.4464984278
  N         0.5210765662        3.3999628149        7.3344839394
  N         1.6978869881        1.4023371605        7.5443894967
  N         2.9187602566        3.4499456895        7.4723164163
  N         5.3668780122        3.4012114307        7.5892505728
  N         7.7092670631        3.3282355524        7.4521390782
  N         8.8607571292        1.2896837028        7.5372175661
  N         6.4835809089        1.3074032424        7.4942341933
  N         4.1589151641        1.3519100461        7.4273217459
  N        10.0817888068        3.4058347861        7.4641930187
  N        11.2730719514        1.3225678800        7.3512089371
  N        12.4253493860        3.3935355106        7.1799123256
  N        13.6097890761        1.4296893197        7.4323549313
  N         5.3420306474        7.4787604653        7.5190420330
  N         4.1401499201        9.5298998937        7.6160514350
  N         0.5970011659       11.7363855841        7.4860480087
  N         1.8461077093        9.6549648690        7.5494890478
  N         3.0224768014        7.5512458291        7.6805078632
  N         4.2123518985        5.4968541095        7.5620517510
  N         1.7822112343        5.5370246683        7.3148837705
  N         0.6936955121        7.6048145154        7.4028013807
