      56
 i =       46, time =       46.000, E =      -152.8341905293
  C         0.5455807014        0.6964006089        7.5149063343
  C         1.6950773349        2.7422804292        7.4590128435
  C         5.2904039369        0.6204327269        7.4743148199
  C         4.1712912242        2.7174020994        7.4894212487
  C         7.7121720132        0.6152382235        7.5588973730
  C         6.5217834058        2.7093979387        7.4748559191
  C         8.8354915327        2.6584634844        7.4397123285
  C        12.4116681310        0.7043855597        7.3818946665
  C        11.3122781871        2.6896809742        7.3023309915
  C        13.6063400310        2.7715257796        7.2410821694
  C         2.9750110983        4.8708237702        7.4803838270
  C         1.8165490806        6.9074382905        7.4059572665
  C         0.6752202828        8.9447585177        7.5139053993
  C         4.2070618514        6.8038139675        7.5822095634
  C         2.9581931705        8.9242840871        7.6871933872
  C         5.3097105046        8.8151897546        7.5930625973
  C        10.0839040887        4.8439039100        7.6194644324
  C         8.9134878281        6.8389401295        7.6474695566
  C         7.8216561252        8.9344140930        7.5598441005
  C         6.5452159400       10.9991801145        7.5236593911
  C        11.3292687278        6.7671604518        7.6449850276
  C        10.1354812054        8.8815469668        7.5915178241
  C        12.4476351088        8.8566009583        7.5132449203
  C        13.7008952878       11.0601563617        7.4308760726
  N         5.3616185454       11.6151879262        7.3770268113
  N         6.5803549249        9.5893373066        7.5466293173
  N         7.8079860031        7.5917851074        7.6321151051
  N         8.9392177510        5.4843915969        7.5498137162
  N         7.7262360383       11.5894307871        7.6607924082
  N         9.0128398403        9.5585944281        7.4625688577
  N        10.1352161381        7.4653138596        7.6746963515
  N        11.2687796329        5.4228365632        7.8194100484
  N        11.2987871115        9.4938187503        7.5715390619
  N        12.5003361580        7.4955495681        7.4938662537
  N        13.7038714569        9.6351673538        7.4588693499
  N        12.5003033273       11.6631905341        7.4139446326
  N         0.5694864708        3.4415456094        7.2876941921
  N         1.7059983931        1.4168883198        7.5620656314
  N         2.9326571325        3.4396439958        7.4794274023
  N         5.3677839865        3.3990238672        7.5712432013
  N         7.6782024122        3.3252761186        7.4395754505
  N         8.8589969374        1.3189552004        7.5313210990
  N         6.4802769884        1.3036720708        7.4742038165
  N         4.1215035256        1.3470318268        7.3969317094
  N        10.0733507143        3.4046260856        7.4354113107
  N        11.2641944549        1.3647405629        7.3350232312
  N        12.4131919825        3.4318211216        7.1267052504
  N        13.6116708622        1.3957366312        7.4206600130
  N         5.3481061126        7.5212692265        7.5393275916
  N         4.1849377764        9.5089399264        7.6667217464
  N         0.6116509595       11.7076641032        7.4912285728
  N         1.7918866364        9.6540850680        7.5667249170
  N         3.0030600066        7.5174354602        7.6715755655
  N         4.2123362184        5.4595199169        7.5595069766
  N         1.8078113316        5.5691623860        7.3014937977
  N         0.7307001936        7.6436048777        7.3811030377
