 DBCSR| CPU Multiplication driver                                           BLAS
 DBCSR| Multrec recursion limit                                              512
 DBCSR| Multiplication stack size                                           1000
 DBCSR| Maximum elements for images                                    UNLIMITED
 DBCSR| Multiplicative factor virtual images                                   1
 DBCSR| Use multiplication densification                                       T
 DBCSR| Multiplication size stacks                                             3
 DBCSR| Use memory pool for CPU allocation                                     F
 DBCSR| Number of 3D layers                                               SINGLE
 DBCSR| Use MPI memory allocation                                              F
 DBCSR| Use RMA algorithm                                                      F
 DBCSR| Use Communication thread                                               T
 DBCSR| Communication thread load                                             87
 DBCSR| MPI: My node id                                                        0
 DBCSR| MPI: Number of nodes                                                  12
 DBCSR| OMP: Current number of threads                                         1
 DBCSR| OMP: Max number of threads                                             1
 DBCSR| Split modifier for TAS multiplication algorithm                  1.0E+00


  **** **** ******  **  PROGRAM STARTED AT               2021-12-27 12:32:53.838
 ***** ** ***  *** **   PROGRAM STARTED ON        cpn-p27-16.compute.cbls.ccr.bu
 **    ****   ******    PROGRAM STARTED BY                              mshakiba
 ***** **    ** ** **   PROGRAM PROCESS ID                                 20825
  **** **  *******  **  PROGRAM STARTED IN /panfs/panfs.cbls.ccr.buffalo.edu/scr
                                           atch/grp-alexeyak/mohammad/my_reposit
                                           ories/Tutorials_Libra/6_dynamics/2_nb
                                           ra_workflows/7_step2_cp2k/2_xTB/2_hpc
                                           /job2

 CP2K| version string:                                          CP2K version 8.2
 CP2K| source code revision number:                                  git:310b7ab
 CP2K| cp2kflags: omp libint fftw3 libxc elpa parallel mpi3 scalapack max_contr=
 CP2K|            4 no_ipi_driver mkl
 CP2K| is freely available from                            https://www.cp2k.org/
 CP2K| Program compiled at                          Sun Dec 26 06:37:31 EST 2021
 CP2K| Program compiled on                       srv-p22-12.cbls.ccr.buffalo.edu
 CP2K| Program compiled for                                  Linux-x86-64-intelx
 CP2K| Data directory path    /projects/academic/cyberwksp21/Software/cp2k-intel
 CP2K| Input file name                                       xtb_diag_step_6.inp
 
 GLOBAL| Force Environment number                                              1
 GLOBAL| Basis set file name                                           BASIS_SET
 GLOBAL| Potential file name                                           POTENTIAL
 GLOBAL| MM Potential file name                                     MM_POTENTIAL
 GLOBAL| Coordinate file name                                        coord-6.xyz
 GLOBAL| Method name                                                        CP2K
 GLOBAL| Project name                                                     Diag_6
 GLOBAL| Run type                                                         ENERGY
 GLOBAL| FFT library                                                       FFTW3
 GLOBAL| Diagonalization library                                            ELPA
 GLOBAL| Minimum number of eigenvectors for ELPA usage                        16
 GLOBAL| Orthonormality check for eigenvectors                          DISABLED
 GLOBAL| Matrix multiplication library                                    SCALAP
 GLOBAL| All-to-all communication in single precision                          F
 GLOBAL| FFTs using library dependent lengths                                  F
 GLOBAL| Grid backend                                                       AUTO
 GLOBAL| Global print level                                                  LOW
 GLOBAL| MPI I/O enabled                                                       T
 GLOBAL| Total number of message passing processes                            12
 GLOBAL| Number of threads for this process                                    1
 GLOBAL| This output is from process                                           0
 GLOBAL| CPU model name                Intel(R) Xeon(R) CPU E5-2620 v3 @ 2.40GHz
 GLOBAL| CPUID                                                              1002

 MEMORY| system memory details [Kb]
 MEMORY|                        rank 0           min           max       average
 MEMORY| MemTotal            131633832     131633832     131633832     131633832
 MEMORY| MemFree              94409544      94409544      94409544      94409544
 MEMORY| Buffers                  2268          2268          2268          2268
 MEMORY| Cached               33110764      33110764      33110764      33110764
 MEMORY| Slab                   546680        546680        546680        546680
 MEMORY| SReclaimable           458264        458264        458264        458264
 MEMORY| MemLikelyFree       127980840     127980840     127980840     127980840

 
 GENERATE|  Preliminary Number of Bonds generated:                             0
 GENERATE|  Achieved consistency in connectivity generation.


                  #####   #####        #          ####### ######   
                 #     # #     #      #              #    #     #  
                 #     # #           #    ##   ##    #    #     #  
                 #     #  #####     #      ## ##     #    ######   
                 #   # #       #   #        ###      #    #     #  
                 #    #  #     #  #        ## ##     #    #     #  
                  #### #  #####  #        ##   ##    #    ######   
                                                                   
                                 Version 1.0                       
                            J. Hutter and A. Hehn                  
                                                                   


 EWALD| Summation is done by:                                               SPME
 EWALD| Alpha parameter [       ANGSTROM^-1]                              1.8897
 EWALD| Real Space Cutoff [          ANGSTROM]                            1.7854
 EWALD| G-space max. Miller index                         81        75       125
 EWALD| Spline interpolation order                                             6


 TOTAL NUMBERS AND MAXIMUM NUMBERS

  Total number of            - Atomic kinds:                                   2
                             - Atoms:                                         56
                             - Shell sets:                                   112
                             - Shells:                                       112
                             - Primitive Cartesian functions:                672
                             - Cartesian basis functions:                    224
                             - Spherical basis functions:                    224

  Maximum angular momentum of the orbital basis functions:                     1


 SCF PARAMETERS         Density guess:                                   RESTART
                        --------------------------------------------------------
                        max_scf:                                              50
                        max_scf_history:                                       0
                        max_diis:                                              4
                        --------------------------------------------------------
                        eps_scf:                                        1.00E-06
                        eps_scf_history:                                0.00E+00
                        eps_diis:                                       1.00E-01
                        eps_eigval:                                     1.00E-05
                        --------------------------------------------------------
                        level_shift [a.u.]:                                 0.00
                        added MOs                                        50    0
                        --------------------------------------------------------
                        Mixing method:                           DIRECT_P_MIXING
                        --------------------------------------------------------
                        No outer SCF

 Number of electrons:                                                        256
 Number of occupied orbitals:                                                128
 Number of molecular orbitals:                                               178

 Number of orbital functions:                                                224
 Number of independent orbital functions:                                    224

 Extrapolation method: initial_guess


 SCF WAVEFUNCTION OPTIMIZATION

  Step     Update method      Time    Convergence         Total energy    Change
  ------------------------------------------------------------------------------
     1 P_Mix/Diag. 0.40E+00    0.0     0.00000037      -152.8421435471 -1.53E+02

  *** SCF run converged in     1 steps ***


  Core Hamiltonian energy:                                   -154.85182533580431
  Repulsive potential energy:                                   1.53820438763362
  Electronic energy:                                            0.47639399692095
  DFTB3 3rd order energy:                                       0.07151001726166
  Dispersion energy:                                           -0.07642661310181
  Correction for halogen bonding:                               0.00000000000000

  Total energy:                                              -152.84214354708988

   Calculate PDOS at iteration step                                  0

              ---- PDOS: start iteration on the KS states --- 

 ENERGY| Total FORCE_EVAL ( QS ) energy [a.u.]:             -152.842143547089876

 -------------------------------------------------------------------------------
 -                                                                             -
 -                                DBCSR STATISTICS                             -
 -                                                                             -
 -------------------------------------------------------------------------------
 COUNTER                                    TOTAL       BLAS       SMM       ACC
 flops     4 x     4 x    18              1594368     100.0%      0.0%      0.0%
 flops     4 x    32 x     4             11108352     100.0%      0.0%      0.0%
 flops     4 x     4 x    32             14172160     100.0%      0.0%      0.0%
 flops inhomo. stacks                           0       0.0%      0.0%      0.0%
 flops total                        26.874880E+06     100.0%      0.0%      0.0%
 flops max/rank                      2.935168E+06     100.0%      0.0%      0.0%
 matmuls inhomo. stacks                         0       0.0%      0.0%      0.0%
 matmuls total                              27456     100.0%      0.0%      0.0%
 number of processed stacks                   192     100.0%      0.0%      0.0%
 average stack size                                   143.0       0.0       0.0
 marketing flops                    38.535168E+06
 -------------------------------------------------------------------------------
 # multiplications                              3
 max memory usage/rank             219.774976E+06
 # max total images/rank                        3
 # max 3D layers                                1
 # MPI messages exchanged                     288
 MPI messages size (bytes):
  total size                         5.792768E+06
  min size                           0.000000E+00
  max size                          33.024000E+03
  average size                      20.113777E+03
 MPI breakdown and total messages size (bytes):
             size <=      128                  12                        0
       128 < size <=     8192                  12                    64512
      8192 < size <=    32768                 259                  5563136
     32768 < size <=   131072                   5                   165120
    131072 < size <=  4194304                   0                        0
   4194304 < size <= 16777216                   0                        0
  16777216 < size                               0                        0
 -------------------------------------------------------------------------------

 *** WARNING in dbcsr_mm.F:294 :: Using a non-square number of MPI ranks ***
 *** might lead to poor performance. Used ranks: 12 Suggested: 9 25      ***

 -------------------------------------------------------------------------------
 -                                                                             -
 -                      DBCSR MESSAGE PASSING PERFORMANCE                      -
 -                                                                             -
 -------------------------------------------------------------------------------
 ROUTINE             CALLS      AVE VOLUME [Bytes]
 MP_Bcast                4                     12.
 MP_Allreduce           39                     17.
 MP_Alltoall            96                  15875.
 MP_ISend               72                   8763.
 MP_IRecv               72                   8250.
 -------------------------------------------------------------------------------

 -------------------------------------------------------------------------------
 -                                                                             -
 -                                GRID STATISTICS                              -
 -                                                                             -
 -------------------------------------------------------------------------------
 LP    KERNEL             BACKEND                              COUNT     PERCENT
 -------------------------------------------------------------------------------

 MEMORY| Estimated peak process memory [MiB]                                 212

 -------------------------------------------------------------------------------
 -                                                                             -
 -                         MESSAGE PASSING PERFORMANCE                         -
 -                                                                             -
 -------------------------------------------------------------------------------

 ROUTINE             CALLS      AVE VOLUME [Bytes]
 MP_Group                2
 MP_Bcast              169                 400503.
 MP_Allreduce          500                   1447.
 MP_Sync                 6
 MP_Alltoall             2                2017632.
 MP_Wait                22
 MP_comm_split           2
 MP_ISend               16                  93000.
 MP_IRecv               16                  93000.
 MP_Recv                 5                  53760.
 -------------------------------------------------------------------------------


 -------------------------------------------------------------------------------
 -                                                                             -
 -                           R E F E R E N C E S                               -
 -                                                                             -
 -------------------------------------------------------------------------------
 
 CP2K version 8.2, the CP2K developers group (2021).
 CP2K is freely available from https://www.cp2k.org/ .

 Kuehne,Thomas D.; Iannuzzi,Marcella; Del Ben,Mauro;
 Rybkin,Vladimir V.; Seewald,Patrick; Stein,Frederick; Laino,Teodoro;
 Khaliullin,Rustam Z.; Schuett,Ole; Schiffmann,Florian; Golze,Dorothea;
 Wilhelm,Jan; Chulkov,Sergey; Bani-Hashemian,Mohammad Hossein;
 Weber,Valery; Borstnik,Urban; Taillefumier,Mathieu;
 Jakobovits,Alice Shoshana; Lazzaro,Alfio; Pabst,Hans; Mueller,Tiziano;
 Schade,Robert; Guidon,Manuel; Andermatt,Samuel; Holmberg,Nico;
 Schenter,Gregory K.; Hehn,Anna; Bussy,Augustin; Belleflamme,Fabian;
 Tabacchi,Gloria; Gloess,Andreas; Lass,Michael; Bethune,Iain;
 Mundy,Christopher J.; Plessl,Christian; Watkins,Matt;
 VandeVondele,Joost; Krack,Matthias; Hutter,Juerg. 
 The Journal of Chemical Physics, 152 (19), (2020). 
 CP2K: An electronic structure and molecular dynamics software package -
 Quickstep: Efficient and accurate electronic structure calculations.
 https://doi.org/10.1063/5.0007045

 Grimme, S; Bannwarth, C; Shushkov, P. 
 Journal of Chemical Theory and Computation, 13, 1989 (2017). 
 A Robust and Accurate Tight-Binding Quantum Chemical Method for
 Structures, Vibrational Frequencies, and Noncovalent Interactions of
 Large Molecular Systems Parametrized for All spd-Block Elements (Z = 1-86).
 https://doi.org/10.1021/acs.jctc.7b00118

 Goerigk, Lars; Hansen, Andreas; Bauer, Christoph; Ehrlich, Stephan;
 Najibi, Asim; Grimme, Stefan. , 19 (48), (2017). 
 A look at the density functional theory zoo with the advanced GMTKN55 database
 for general main group thermochemistry, kinetics and noncovalent interactions.
 https://doi.org/10.1039/C7CP04913G

 Schuett, Ole; Messmer, Peter; Hutter, Juerg; VandeVondele, Joost. 
 Electronic Structure Calculations on Graphics Processing Units, John
 Wiley & Sons, Ltd, 173-190 (2016). 
 GPU-Accelerated Sparse Matrix-Matrix Multiplication for
 Linear Scaling Density Functional Theory.
 https://doi.org/10.1002/9781118670712.ch8

 Borstnik, U; VandeVondele, J; Weber, V; Hutter, J. 
 PARALLEL COMPUTING, 40 (5-6), 47-58 (2014). 
 Sparse matrix multiplication: The distributed block-compressed sparse
 row library.
 https://doi.org/10.1016/j.parco.2014.03.012

 Hutter, J; Iannuzzi, M; Schiffmann, F; VandeVondele, J. 
 WIREs Comput Mol Sci., 4 (1), 15-25 (2014). 
 CP2K: atomistic simulations of condensed matter systems.
 https://doi.org/10.1002/wcms.1159

 Marek, A; Blum, V; Johanni, R; Havu, V; Lang, B; Auckenthaler, T;
 Heinecke, A; Bungartz, H; Lederer, H. 
 Journal of Physics: Condensed Matter, 26 (21), (2014). 
 The ELPA library: scalable parallel eigenvalue solutions for
 electronic structure
 theory and computational science.
 https://doi.org/10.1088/0953-8984/26/21/213201

 Grimme, S; Ehrlich, S; Goerigk, L. 
 JOURNAL OF COMPUTATIONAL CHEMISTRY, 32, 1456 (2011). 
 Effect of the damping function in dispersion corrected density functional theory.
 https://doi.org/10.1002/jcc.21759

 Grimme, S; Antony, J; Ehrlich, S; Krieg, H. 
 JOURNAL OF CHEMICAL PHYSICS, 132 (15), 154104 (2010). 
 A consistent and accurate ab initio parametrization of density
 functional dispersion correction (DFT-D) for the 94 elements H-Pu.
 https://doi.org/10.1063/1.3382344

 Frigo, M; Johnson, SG. 
 PROCEEDINGS OF THE IEEE, 93 (2), 216-231 (2005). 
 The design and implementation of FFTW3.
 https://doi.org/10.1109/JPROC.2004.840301


 -------------------------------------------------------------------------------
 -                                                                             -
 -                                T I M I N G                                  -
 -                                                                             -
 -------------------------------------------------------------------------------
 SUBROUTINE                       CALLS  ASD         SELF TIME        TOTAL TIME
                                MAXIMUM       AVERAGE  MAXIMUM  AVERAGE  MAXIMUM
 CP2K                                 1  1.0    0.006    0.010    0.640    0.645
 qs_energies                          1  2.0    0.000    0.000    0.443    0.493
 scf_post_calculation_tb              1  3.0    0.000    0.000    0.351    0.363
 write_mos_molden                     1  4.0    0.024    0.292    0.042    0.292
 calculate_projected_dos              1  4.0    0.007    0.058    0.270    0.288
 mp_sum_iv                           20  5.7    0.250    0.273    0.250    0.273
 scf_env_do_scf                       1  3.0    0.000    0.000    0.065    0.103
 scf_env_do_scf_inner_loop            1  4.0    0.000    0.000    0.065    0.103
 qs_init_subsys                       1  2.0    0.001    0.004    0.076    0.076
 mp_sum_dm                          182  6.0    0.057    0.062    0.057    0.062
 mp_sum_l                           278  2.4    0.055    0.061    0.055    0.061
 write_mo_set_to_restart              1  5.0    0.002    0.020    0.020    0.058
 qs_dispersion_pairpot_init           1  3.0    0.009    0.056    0.057    0.058
 mp_sum_i                             4  3.0    0.051    0.055    0.051    0.055
 restraint_control                    1  2.0    0.000    0.000    0.050    0.055
 mp_bcast_dv                          5  7.0    0.047    0.052    0.047    0.052
 mulliken_charges_bkp                 1  4.0    0.000    0.000    0.038    0.042
 write_mo_set_low                     1  6.0    0.001    0.008    0.018    0.038
 cp_fm_write_unformatted              1  7.0    0.017    0.030    0.017    0.030
 qs_ks_update_qs_env                  1  5.0    0.000    0.000    0.026    0.026
 rebuild_ks_matrix                    1  6.0    0.000    0.000    0.026    0.026
 build_xtb_ks_matrix                  1  7.0    0.000    0.000    0.026    0.026
 build_xtb_coulomb                    1  8.0    0.000    0.000    0.026    0.026
 tb_spme_evaluate                     1  9.0    0.000    0.000    0.025    0.025
 init_scf_run                         1  3.0    0.000    0.000    0.021    0.022
 cp_fm_get_submatrix                179  5.0    0.000    0.000    0.019    0.021
 cp_fm_diag_elpa                      2  6.5    0.000    0.000    0.020    0.020
 cp_fm_redistribute_end               2  7.5    0.013    0.019    0.013    0.019
 qs_scf_new_mos                       1  5.0    0.000    0.000    0.018    0.019
 cp_fm_diag_elpa_base                 2  7.5    0.006    0.017    0.006    0.018
 scf_env_initial_rho_setup            1  4.0    0.000    0.000    0.015    0.015
 calculate_first_density_matrix       1  5.0    0.000    0.000    0.015    0.015
 eigensolver                          1  6.0    0.000    0.000    0.014    0.014
 -------------------------------------------------------------------------------

 The number of warnings for this run is : 1
 
 -------------------------------------------------------------------------------
  **** **** ******  **  PROGRAM ENDED AT                 2021-12-27 12:32:55.075
 ***** ** ***  *** **   PROGRAM RAN ON            cpn-p27-16.compute.cbls.ccr.bu
 **    ****   ******    PROGRAM RAN BY                                  mshakiba
 ***** **    ** ** **   PROGRAM PROCESS ID                                 20825
  **** **  *******  **  PROGRAM STOPPED IN /panfs/panfs.cbls.ccr.buffalo.edu/scr
                                           atch/grp-alexeyak/mohammad/my_reposit
                                           ories/Tutorials_Libra/6_dynamics/2_nb
                                           ra_workflows/7_step2_cp2k/2_xTB/2_hpc
                                           /job2
