 DBCSR| CPU Multiplication driver                                           BLAS
 DBCSR| Multrec recursion limit                                              512
 DBCSR| Multiplication stack size                                           1000
 DBCSR| Maximum elements for images                                    UNLIMITED
 DBCSR| Multiplicative factor virtual images                                   1
 DBCSR| Use multiplication densification                                       T
 DBCSR| Multiplication size stacks                                             3
 DBCSR| Use memory pool for CPU allocation                                     F
 DBCSR| Number of 3D layers                                               SINGLE
 DBCSR| Use MPI memory allocation                                              F
 DBCSR| Use RMA algorithm                                                      F
 DBCSR| Use Communication thread                                               T
 DBCSR| Communication thread load                                             87
 DBCSR| MPI: My node id                                                        0
 DBCSR| MPI: Number of nodes                                                  12
 DBCSR| OMP: Current number of threads                                         1
 DBCSR| OMP: Max number of threads                                             1
 DBCSR| Split modifier for TAS multiplication algorithm                  1.0E+00


  **** **** ******  **  PROGRAM STARTED AT               2021-12-27 12:32:43.443
 ***** ** ***  *** **   PROGRAM STARTED ON        cpn-p27-15.compute.cbls.ccr.bu
 **    ****   ******    PROGRAM STARTED BY                              mshakiba
 ***** **    ** ** **   PROGRAM PROCESS ID                                 29734
  **** **  *******  **  PROGRAM STARTED IN /panfs/panfs.cbls.ccr.buffalo.edu/scr
                                           atch/grp-alexeyak/mohammad/my_reposit
                                           ories/Tutorials_Libra/6_dynamics/2_nb
                                           ra_workflows/7_step2_cp2k/2_xTB/2_hpc
                                           /job1

 CP2K| version string:                                          CP2K version 8.2
 CP2K| source code revision number:                                  git:310b7ab
 CP2K| cp2kflags: omp libint fftw3 libxc elpa parallel mpi3 scalapack max_contr=
 CP2K|            4 no_ipi_driver mkl
 CP2K| is freely available from                            https://www.cp2k.org/
 CP2K| Program compiled at                          Sun Dec 26 06:37:31 EST 2021
 CP2K| Program compiled on                       srv-p22-12.cbls.ccr.buffalo.edu
 CP2K| Program compiled for                                  Linux-x86-64-intelx
 CP2K| Data directory path    /projects/academic/cyberwksp21/Software/cp2k-intel
 CP2K| Input file name                                         xtb_ot_step_1.inp
 
 GLOBAL| Force Environment number                                              1
 GLOBAL| Basis set file name                                           BASIS_SET
 GLOBAL| Potential file name                                           POTENTIAL
 GLOBAL| MM Potential file name                                     MM_POTENTIAL
 GLOBAL| Coordinate file name                                        coord-1.xyz
 GLOBAL| Method name                                                        CP2K
 GLOBAL| Project name                                                       OT_1
 GLOBAL| Run type                                                         ENERGY
 GLOBAL| FFT library                                                       FFTW3
 GLOBAL| Diagonalization library                                            ELPA
 GLOBAL| Minimum number of eigenvectors for ELPA usage                        16
 GLOBAL| Orthonormality check for eigenvectors                          DISABLED
 GLOBAL| Matrix multiplication library                                    SCALAP
 GLOBAL| All-to-all communication in single precision                          F
 GLOBAL| FFTs using library dependent lengths                                  F
 GLOBAL| Grid backend                                                       AUTO
 GLOBAL| Global print level                                                  LOW
 GLOBAL| MPI I/O enabled                                                       T
 GLOBAL| Total number of message passing processes                            12
 GLOBAL| Number of threads for this process                                    1
 GLOBAL| This output is from process                                           0
 GLOBAL| CPU model name                Intel(R) Xeon(R) CPU E5-2620 v3 @ 2.40GHz
 GLOBAL| CPUID                                                              1002

 MEMORY| system memory details [Kb]
 MEMORY|                        rank 0           min           max       average
 MEMORY| MemTotal            131633832     131633832     131633832     131633832
 MEMORY| MemFree              46113808      46112600      46113808      46113024
 MEMORY| Buffers                  2268          2268          2268          2268
 MEMORY| Cached               81186976      81186976      81186976      81186976
 MEMORY| Slab                   820716        820716        820716        820716
 MEMORY| SReclaimable           729004        729004        729004        729004
 MEMORY| MemLikelyFree       128032056     128030848     128032056     128031272

 
 GENERATE|  Preliminary Number of Bonds generated:                             0
 GENERATE|  Achieved consistency in connectivity generation.


                  #####   #####        #          ####### ######   
                 #     # #     #      #              #    #     #  
                 #     # #           #    ##   ##    #    #     #  
                 #     #  #####     #      ## ##     #    ######   
                 #   # #       #   #        ###      #    #     #  
                 #    #  #     #  #        ## ##     #    #     #  
                  #### #  #####  #        ##   ##    #    ######   
                                                                   
                                 Version 1.0                       
                            J. Hutter and A. Hehn                  
                                                                   


 EWALD| Summation is done by:                                               SPME
 EWALD| Alpha parameter [       ANGSTROM^-1]                              1.8897
 EWALD| Real Space Cutoff [          ANGSTROM]                            1.7854
 EWALD| G-space max. Miller index                         81        75       125
 EWALD| Spline interpolation order                                             6


 TOTAL NUMBERS AND MAXIMUM NUMBERS

  Total number of            - Atomic kinds:                                   2
                             - Atoms:                                         56
                             - Shell sets:                                   112
                             - Shells:                                       112
                             - Primitive Cartesian functions:                672
                             - Cartesian basis functions:                    224
                             - Spherical basis functions:                    224

  Maximum angular momentum of the orbital basis functions:                     1


 SCF PARAMETERS         Density guess:                                   RESTART
                        --------------------------------------------------------
                        max_scf:                                              50
                        max_scf_history:                                       0
                        max_diis:                                              4
                        --------------------------------------------------------
                        eps_scf:                                        5.00E-08
                        eps_scf_history:                                0.00E+00
                        eps_diis:                                       1.00E-01
                        eps_eigval:                                     1.00E-05
                        --------------------------------------------------------
                        level_shift [a.u.]:                                 0.00
                        --------------------------------------------------------
                        No outer SCF

 Number of electrons:                                                        256
 Number of occupied orbitals:                                                128
 Number of molecular orbitals:                                               128

 Number of orbital functions:                                                224
 Number of independent orbital functions:                                    224

 Extrapolation method: initial_guess

 *** WARNING in qs_initial_guess.F:309 :: User requested to restart the    ***
 *** wavefunction from the file named: OT_0-RESTART.wfn. This file does    ***
 *** not exist. Please check the existence of the file or change properly  ***
 *** the value of the keyword WFN_RESTART_FILE_NAME. Calculation continues ***
 *** using ATOMIC GUESS.                                                   ***



 SCF WAVEFUNCTION OPTIMIZATION

  ----------------------------------- OT ---------------------------------------
  Minimizer      : DIIS                : direct inversion
                                         in the iterative subspace
                                         using   7 DIIS vectors
                                         safer DIIS on
  Preconditioner : FULL_SINGLE_INVERSE : inversion of 
                                         H + eS - 2*(Sc)(c^T*H*c+const)(Sc)^T
  Precond_solver : DEFAULT
  stepsize       :    0.08000000                  energy_gap     :    0.08000000
  eps_taylor     :   0.10000E-15                  max_taylor     :             4
  ----------------------------------- OT ---------------------------------------

  Step     Update method      Time    Convergence         Total energy    Change
  ------------------------------------------------------------------------------
     1 OT DIIS     0.80E-01    0.1     0.06945099      -149.3814977539 -1.49E+02
     2 OT DIIS     0.80E-01    0.1     0.03059321      -151.9371146639 -2.56E+00
     3 OT DIIS     0.80E-01    0.1     0.00595298      -152.8446982921 -9.08E-01
     4 OT DIIS     0.80E-01    0.1     0.00176990      -152.8744852145 -2.98E-02
     5 OT DIIS     0.80E-01    0.1     0.00062025      -152.8774969336 -3.01E-03
     6 OT DIIS     0.80E-01    0.1     0.00033642      -152.8782367549 -7.40E-04
     7 OT DIIS     0.80E-01    0.1     0.00014662      -152.8783853313 -1.49E-04
     8 OT DIIS     0.80E-01    0.1     0.00006662      -152.8784085121 -2.32E-05
     9 OT DIIS     0.80E-01    0.1     0.00004430      -152.8784154029 -6.89E-06
    10 OT DIIS     0.80E-01    0.1     0.00001034      -152.8784177029 -2.30E-06
    11 OT DIIS     0.80E-01    0.1     0.00000632      -152.8784178988 -1.96E-07
    12 OT DIIS     0.80E-01    0.1     0.00000303      -152.8784179594 -6.05E-08
    13 OT DIIS     0.80E-01    0.1     0.00000159      -152.8784179812 -2.18E-08
    14 OT DIIS     0.80E-01    0.1     0.00000079      -152.8784179855 -4.34E-09
    15 OT DIIS     0.80E-01    0.1     0.00000038      -152.8784179872 -1.63E-09
    16 OT DIIS     0.80E-01    0.1     0.00000026      -152.8784179874 -2.37E-10
    17 OT DIIS     0.80E-01    0.1     0.00000009      -152.8784179875 -1.43E-10
    18 OT DIIS     0.80E-01    0.1     0.00000006      -152.8784179876 -1.97E-11
    19 OT DIIS     0.80E-01    0.1     0.00000004      -152.8784179876 -6.42E-12

  *** SCF run converged in    19 steps ***


  Core Hamiltonian energy:                                   -154.86277141995868
  Repulsive potential energy:                                   1.51518742692182
  Electronic energy:                                            0.47490253102362
  DFTB3 3rd order energy:                                       0.07048615800105
  Dispersion energy:                                           -0.07622268356122
  Correction for halogen bonding:                               0.00000000000000

  Total energy:                                              -152.87841798757341

 ENERGY| Total FORCE_EVAL ( QS ) energy [a.u.]:             -152.878417987573414

 -------------------------------------------------------------------------------
 -                                                                             -
 -                                DBCSR STATISTICS                             -
 -                                                                             -
 -------------------------------------------------------------------------------
 COUNTER                                    TOTAL       BLAS       SMM       ACC
 flops    32 x    32 x    40              1638400     100.0%      0.0%      0.0%
 flops    32 x    32 x    36              2949120     100.0%      0.0%      0.0%
 flops     4 x    32 x    32              9175040     100.0%      0.0%      0.0%
 flops   108 x    32 x    40             44236800     100.0%      0.0%      0.0%
 flops   116 x    32 x    40             47513600     100.0%      0.0%      0.0%
 flops   108 x    32 x    36             79626240     100.0%      0.0%      0.0%
 flops   116 x    32 x    36             85524480     100.0%      0.0%      0.0%
 flops     4 x     4 x    32            119914496     100.0%      0.0%      0.0%
 flops    64 x    32 x    40            196608000     100.0%      0.0%      0.0%
 flops   108 x    32 x    32            329121792     100.0%      0.0%      0.0%
 flops   116 x    32 x    32            353501184     100.0%      0.0%      0.0%
 flops    64 x    32 x    36            353894400     100.0%      0.0%      0.0%
 flops     4 x    32 x     4            455442432     100.0%      0.0%      0.0%
 flops    64 x    32 x    32            692060160     100.0%      0.0%      0.0%
 flops inhomo. stacks                           0       0.0%      0.0%      0.0%
 flops total                         2.771206E+09     100.0%      0.0%      0.0%
 flops max/rank                    349.392896E+06     100.0%      0.0%      0.0%
 matmuls inhomo. stacks                         0       0.0%      0.0%      0.0%
 matmuls total                             575868     100.0%      0.0%      0.0%
 number of processed stacks                 15874     100.0%      0.0%      0.0%
 average stack size                                    36.3       0.0       0.0
 marketing flops                     3.007830E+09
 -------------------------------------------------------------------------------
 # multiplications                            419
 max memory usage/rank             234.995712E+06
 # max total images/rank                        3
 # max 3D layers                                1
 # MPI messages exchanged                   40224
 MPI messages size (bytes):
  total size                       509.860864E+06
  min size                           0.000000E+00
  max size                          37.120000E+03
  average size                      12.675539E+03
 MPI breakdown and total messages size (bytes):
             size <=      128               12824                        0
       128 < size <=     8192                4148                 33980416
      8192 < size <=    32768               22452                448181248
     32768 < size <=   131072                 800                 27699200
    131072 < size <=  4194304                   0                        0
   4194304 < size <= 16777216                   0                        0
  16777216 < size                               0                        0
 -------------------------------------------------------------------------------

 *** WARNING in dbcsr_mm.F:294 :: Using a non-square number of MPI ranks ***
 *** might lead to poor performance. Used ranks: 12 Suggested: 9 25      ***

 -------------------------------------------------------------------------------
 -                                                                             -
 -                      DBCSR MESSAGE PASSING PERFORMANCE                      -
 -                                                                             -
 -------------------------------------------------------------------------------
 ROUTINE             CALLS      AVE VOLUME [Bytes]
 MP_Bcast               15                     12.
 MP_Allreduce         2265                      8.
 MP_Alltoall          1470                   4268.
 MP_ISend             9192                   6200.
 MP_IRecv             9154                   5316.
 -------------------------------------------------------------------------------

 -------------------------------------------------------------------------------
 -                                                                             -
 -                                GRID STATISTICS                              -
 -                                                                             -
 -------------------------------------------------------------------------------
 LP    KERNEL             BACKEND                              COUNT     PERCENT
 -------------------------------------------------------------------------------

 MEMORY| Estimated peak process memory [MiB]                                 225

 -------------------------------------------------------------------------------
 -                                                                             -
 -                         MESSAGE PASSING PERFORMANCE                         -
 -                                                                             -
 -------------------------------------------------------------------------------

 ROUTINE             CALLS      AVE VOLUME [Bytes]
 MP_Group                2
 MP_Bcast             1510                  45071.
 MP_Allreduce         4161                    238.
 MP_Sync                42
 MP_Alltoall            38                2017632.
 MP_Wait               418
 MP_comm_split          20
 MP_ISend              304                  93000.
 MP_IRecv              304                  93000.
 MP_Recv                 5                  39424.
 -------------------------------------------------------------------------------


 -------------------------------------------------------------------------------
 -                                                                             -
 -                           R E F E R E N C E S                               -
 -                                                                             -
 -------------------------------------------------------------------------------
 
 CP2K version 8.2, the CP2K developers group (2021).
 CP2K is freely available from https://www.cp2k.org/ .

 Kuehne,Thomas D.; Iannuzzi,Marcella; Del Ben,Mauro;
 Rybkin,Vladimir V.; Seewald,Patrick; Stein,Frederick; Laino,Teodoro;
 Khaliullin,Rustam Z.; Schuett,Ole; Schiffmann,Florian; Golze,Dorothea;
 Wilhelm,Jan; Chulkov,Sergey; Bani-Hashemian,Mohammad Hossein;
 Weber,Valery; Borstnik,Urban; Taillefumier,Mathieu;
 Jakobovits,Alice Shoshana; Lazzaro,Alfio; Pabst,Hans; Mueller,Tiziano;
 Schade,Robert; Guidon,Manuel; Andermatt,Samuel; Holmberg,Nico;
 Schenter,Gregory K.; Hehn,Anna; Bussy,Augustin; Belleflamme,Fabian;
 Tabacchi,Gloria; Gloess,Andreas; Lass,Michael; Bethune,Iain;
 Mundy,Christopher J.; Plessl,Christian; Watkins,Matt;
 VandeVondele,Joost; Krack,Matthias; Hutter,Juerg. 
 The Journal of Chemical Physics, 152 (19), (2020). 
 CP2K: An electronic structure and molecular dynamics software package -
 Quickstep: Efficient and accurate electronic structure calculations.
 https://doi.org/10.1063/5.0007045

 Grimme, S; Bannwarth, C; Shushkov, P. 
 Journal of Chemical Theory and Computation, 13, 1989 (2017). 
 A Robust and Accurate Tight-Binding Quantum Chemical Method for
 Structures, Vibrational Frequencies, and Noncovalent Interactions of
 Large Molecular Systems Parametrized for All spd-Block Elements (Z = 1-86).
 https://doi.org/10.1021/acs.jctc.7b00118

 Goerigk, Lars; Hansen, Andreas; Bauer, Christoph; Ehrlich, Stephan;
 Najibi, Asim; Grimme, Stefan. , 19 (48), (2017). 
 A look at the density functional theory zoo with the advanced GMTKN55 database
 for general main group thermochemistry, kinetics and noncovalent interactions.
 https://doi.org/10.1039/C7CP04913G

 Schuett, Ole; Messmer, Peter; Hutter, Juerg; VandeVondele, Joost. 
 Electronic Structure Calculations on Graphics Processing Units, John
 Wiley & Sons, Ltd, 173-190 (2016). 
 GPU-Accelerated Sparse Matrix-Matrix Multiplication for
 Linear Scaling Density Functional Theory.
 https://doi.org/10.1002/9781118670712.ch8

 Borstnik, U; VandeVondele, J; Weber, V; Hutter, J. 
 PARALLEL COMPUTING, 40 (5-6), 47-58 (2014). 
 Sparse matrix multiplication: The distributed block-compressed sparse
 row library.
 https://doi.org/10.1016/j.parco.2014.03.012

 Hutter, J; Iannuzzi, M; Schiffmann, F; VandeVondele, J. 
 WIREs Comput Mol Sci., 4 (1), 15-25 (2014). 
 CP2K: atomistic simulations of condensed matter systems.
 https://doi.org/10.1002/wcms.1159

 Marek, A; Blum, V; Johanni, R; Havu, V; Lang, B; Auckenthaler, T;
 Heinecke, A; Bungartz, H; Lederer, H. 
 Journal of Physics: Condensed Matter, 26 (21), (2014). 
 The ELPA library: scalable parallel eigenvalue solutions for
 electronic structure
 theory and computational science.
 https://doi.org/10.1088/0953-8984/26/21/213201

 Grimme, S; Ehrlich, S; Goerigk, L. 
 JOURNAL OF COMPUTATIONAL CHEMISTRY, 32, 1456 (2011). 
 Effect of the damping function in dispersion corrected density functional theory.
 https://doi.org/10.1002/jcc.21759

 Grimme, S; Antony, J; Ehrlich, S; Krieg, H. 
 JOURNAL OF CHEMICAL PHYSICS, 132 (15), 154104 (2010). 
 A consistent and accurate ab initio parametrization of density
 functional dispersion correction (DFT-D) for the 94 elements H-Pu.
 https://doi.org/10.1063/1.3382344

 Frigo, M; Johnson, SG. 
 PROCEEDINGS OF THE IEEE, 93 (2), 216-231 (2005). 
 The design and implementation of FFTW3.
 https://doi.org/10.1109/JPROC.2004.840301

 VandeVondele, J; Hutter, J. 
 JOURNAL OF CHEMICAL PHYSICS, 118 (10), 4365-4369 (2003). 
 An efficient orbital transformation method for electronic structure
 calculations.
 https://doi.org/10.1063/1.1543154


 -------------------------------------------------------------------------------
 -                                                                             -
 -                                T I M I N G                                  -
 -                                                                             -
 -------------------------------------------------------------------------------
 SUBROUTINE                       CALLS  ASD         SELF TIME        TOTAL TIME
                                MAXIMUM       AVERAGE  MAXIMUM  AVERAGE  MAXIMUM
 CP2K                                 1  1.0    0.006    0.009    2.958    2.959
 qs_energies                          1  2.0    0.000    0.000    2.875    2.875
 scf_env_do_scf                       1  3.0    0.000    0.000    2.838    2.838
 scf_env_do_scf_inner_loop           19  4.0    0.000    0.001    2.709    2.768
 write_mo_set_to_restart             19  5.0    0.141    1.686    1.692    1.751
 write_mo_set_low                     1  6.0    0.001    0.008    1.550    1.685
 cp_fm_write_unformatted              1  7.0    1.550    1.685    1.550    1.685
 qs_scf_new_mos                      19  5.0    0.000    0.000    0.606    0.610
 qs_scf_loop_do_ot                   19  6.0    0.000    0.000    0.606    0.610
 ot_scf_mini                         19  7.0    0.000    0.000    0.580    0.583
 dbcsr_multiply_generic             419 10.1    0.016    0.017    0.482    0.486
 qs_ks_update_qs_env                 20  5.0    0.000    0.000    0.440    0.442
 rebuild_ks_matrix                   19  6.0    0.000    0.000    0.439    0.441
 build_xtb_ks_matrix                 19  7.0    0.001    0.001    0.439    0.441
 build_xtb_coulomb                   19  8.0    0.005    0.006    0.406    0.406
 tb_spme_evaluate                    19  9.0    0.004    0.005    0.397    0.397
 ot_mini                             19  8.0    0.000    0.000    0.304    0.308
 qs_ot_get_derivative                19  9.0    0.000    0.000    0.266    0.269
 qs_ot_get_p                         20  7.9    0.000    0.000    0.206    0.208
 make_m2s                           838 11.1    0.012    0.013    0.196    0.201
 qs_ot_get_derivative_diag           18 10.0    0.000    0.000    0.197    0.200
 multiply_cannon                    419 11.1    0.029    0.031    0.185    0.197
 pw_transfer                        133 10.7    0.006    0.006    0.180    0.187
 fft_wrap_pw1pw2                     38 11.0    0.000    0.000    0.171    0.177
 fft_wrap_pw1pw2_50                  38 12.0    0.012    0.012    0.171    0.177
 fft3d_ps                            38 13.0    0.121    0.130    0.154    0.160
 rs_grid_zero                        57 10.7    0.140    0.143    0.140    0.143
 make_images                        838 12.1    0.021    0.023    0.133    0.143
 qs_ot_p2m_diag                      19  9.0    0.003    0.004    0.131    0.132
 multiply_cannon_loop               419 12.1    0.014    0.017    0.115    0.130
 rs_pw_transfer                      38 10.0    0.000    0.000    0.110    0.117
 cp_dbcsr_syevd                      19 10.0    0.001    0.001    0.087    0.088
 rs_pw_transfer_PW2RS_50             19 11.0    0.017    0.019    0.078    0.086
 copy_dbcsr_to_fm                    27  9.9    0.001    0.001    0.079    0.085
 cp_fm_diag_elpa                     20 10.8    0.000    0.000    0.083    0.083
 mp_waitall_1                     20226 14.3    0.045    0.074    0.045    0.074
 cp_fm_redistribute_end              20 11.8    0.049    0.071    0.050    0.071
 multiply_cannon_metrocomm3        2514 13.1    0.007    0.008    0.040    0.071
 mp_alltoall_i22                     98 12.2    0.064    0.071    0.064    0.071
 dbcsr_desymmetrize_deep             27 10.9    0.001    0.001    0.064    0.070
 init_scf_loop                        1  4.0    0.000    0.000    0.069    0.069
 mp_sum_l                          2276 10.1    0.039    0.066    0.039    0.066
 cp_fm_diag_elpa_base                20 11.8    0.021    0.062    0.021    0.064
 make_images_sizes                  838 13.1    0.001    0.001    0.038    0.061
 qs_init_subsys                       1  2.0    0.001    0.004    0.060    0.060
 mp_alltoall_i44                    838 14.1    0.037    0.060    0.037    0.060
 -------------------------------------------------------------------------------

 The number of warnings for this run is : 2
 
 -------------------------------------------------------------------------------
  **** **** ******  **  PROGRAM ENDED AT                 2021-12-27 12:32:47.073
 ***** ** ***  *** **   PROGRAM RAN ON            cpn-p27-15.compute.cbls.ccr.bu
 **    ****   ******    PROGRAM RAN BY                                  mshakiba
 ***** **    ** ** **   PROGRAM PROCESS ID                                 29734
  **** **  *******  **  PROGRAM STOPPED IN /panfs/panfs.cbls.ccr.buffalo.edu/scr
                                           atch/grp-alexeyak/mohammad/my_reposit
                                           ories/Tutorials_Libra/6_dynamics/2_nb
                                           ra_workflows/7_step2_cp2k/2_xTB/2_hpc
                                           /job1
