# Projected DOS for atomic kind N at iteration step i = 0, E(Fermi) =    -0.415893 a.u.
#     MO Eigenvalue [a.u.]      Occupation                 s                py                pz                px
       1         -0.860392        2.000000        0.62187289        0.00611502        0.00000176        0.00604974
       2         -0.857700        2.000000        0.62166233        0.00661496        0.00000221        0.00686267
       3         -0.854993        2.000000        0.62049831        0.00660849        0.00000191        0.00642544
       4         -0.841374        2.000000        0.62650747        0.00762817        0.00000341        0.00774889
       5         -0.834244        2.000000        0.63649484        0.00598708        0.00000253        0.00562754
       6         -0.829549        2.000000        0.63729856        0.00608016        0.00000905        0.00709516
       7         -0.829169        2.000000        0.63761132        0.00582756        0.00000174        0.00629325
       8         -0.814016        2.000000        0.63967217        0.00787259        0.00000152        0.00779841
       9         -0.807838        2.000000        0.53910888        0.02058329        0.00001550        0.03143010
      10         -0.806708        2.000000        0.54368356        0.02289536        0.00000781        0.02631650
      11         -0.805604        2.000000        0.54740016        0.02969185        0.00000498        0.01998677
      12         -0.802085        2.000000        0.54942548        0.02458931        0.00001413        0.02511564
      13         -0.801428        2.000000        0.54503142        0.02768262        0.00001214        0.02300755
      14         -0.800206        2.000000        0.56086602        0.02872909        0.00001229        0.01238143
      15         -0.799746        2.000000        0.55456769        0.01864135        0.00000848        0.02520132
      16         -0.798317        2.000000        0.56040345        0.01545532        0.00002242        0.02666948
      17         -0.797151        2.000000        0.57278607        0.01602439        0.00000976        0.01836006
      18         -0.796894        2.000000        0.59272217        0.01111576        0.00000576        0.01257724
      19         -0.796143        2.000000        0.58475396        0.01077420        0.00002982        0.01502466
      20         -0.795425        2.000000        0.59736820        0.01012775        0.00001994        0.00994299
      21         -0.794449        2.000000        0.59389048        0.01056774        0.00001048        0.00787234
      22         -0.793235        2.000000        0.59814011        0.00933669        0.00001323        0.01041434
      23         -0.790231        2.000000        0.60286683        0.01002951        0.00001125        0.00794434
      24         -0.789529        2.000000        0.59816128        0.01238282        0.00001739        0.00489326
      25         -0.789041        2.000000        0.59701804        0.00885387        0.00001266        0.01065269
      26         -0.787942        2.000000        0.59875022        0.01128053        0.00001311        0.01092563
      27         -0.787231        2.000000        0.59987069        0.00749543        0.00001094        0.00898621
      28         -0.785657        2.000000        0.59069872        0.01168719        0.00000775        0.01090332
      29         -0.783586        2.000000        0.60069265        0.01058279        0.00000700        0.00819116
      30         -0.782639        2.000000        0.60997156        0.00760324        0.00001539        0.00882611
      31         -0.780951        2.000000        0.60956010        0.00668558        0.00000541        0.00960368
      32         -0.776209        2.000000        0.61829606        0.00460657        0.00000748        0.00538352
      33         -0.700398        2.000000        0.01278235        0.29692694        0.00004364        0.19680830
      34         -0.698375        2.000000        0.01265955        0.31087075        0.00005691        0.18126060
      35         -0.696042        2.000000        0.01016893        0.15741223        0.00003198        0.33245102
      36         -0.691799        2.000000        0.01711821        0.28979794        0.00005969        0.19487991
      37         -0.688713        2.000000        0.01631693        0.20579935        0.00006162        0.27590950
      38         -0.688020        2.000000        0.02651406        0.17837637        0.00004544        0.30467287
      39         -0.682928        2.000000        0.04751913        0.33435742        0.00009230        0.14006458
      40         -0.679133        2.000000        0.03997884        0.15805544        0.00011019        0.31710113
      41         -0.674763        2.000000        0.05451514        0.26653248        0.00020136        0.21497054
      42         -0.671287        2.000000        0.06093046        0.27029649        0.00009199        0.20967677
      43         -0.669152        2.000000        0.05940005        0.24908113        0.00006375        0.23249883
      44         -0.662305        2.000000        0.02775788        0.24847668        0.00008934        0.23112039
      45         -0.659558        2.000000        0.02431711        0.31056903        0.00017705        0.18823660
      46         -0.657854        2.000000        0.01825261        0.20988871        0.00012600        0.28946989
      47         -0.650456        2.000000        0.05685844        0.23261901        0.00064854        0.27920722
      48         -0.646917        2.000000        0.05607514        0.26385217        0.00007895        0.25067816
      49         -0.642830        2.000000        0.04295090        0.19324694        0.00045545        0.32114441
      50         -0.641796        2.000000        0.04881035        0.17296265        0.00030073        0.34011661
      51         -0.638550        2.000000        0.03980287        0.27001441        0.00040919        0.24460087
      52         -0.637921        2.000000        0.04096509        0.24929814        0.00042355        0.26417531
      53         -0.632790        2.000000        0.03982325        0.27055261        0.00022511        0.24429773
      54         -0.631881        2.000000        0.04497032        0.19349571        0.00010896        0.32319985
      55         -0.627628        2.000000        0.01378209        0.41600779        0.00037251        0.08848185
      56         -0.625518        2.000000        0.01454981        0.41630107        0.00028797        0.08463487
      57         -0.621499        2.000000        0.01764508        0.27371032        0.00307074        0.23010434
      58         -0.619462        2.000000        0.00018339        0.00199258        0.52039615        0.00202245
      59         -0.615504        2.000000        0.00012915        0.00100709        0.53015785        0.00096990
      60         -0.612358        2.000000        0.00014181        0.00093301        0.52980134        0.00115746
      61         -0.606005        2.000000        0.02084805        0.11228415        0.00113837        0.39547321
      62         -0.604477        2.000000        0.01971001        0.10786433        0.01494689        0.38861676
      63         -0.604335        2.000000        0.00051059        0.00328177        0.50763283        0.01046430
      64         -0.594002        2.000000        0.01947822        0.40941642        0.00060745        0.10187123
      65         -0.592778        2.000000        0.02102648        0.03715480        0.00146010        0.48046108
      66         -0.591025        2.000000        0.02654329        0.29208270        0.00226973        0.23731228
      67         -0.588377        2.000000        0.01536421        0.37803409        0.01605016        0.13191767
      68         -0.587989        2.000000        0.01103513        0.04948962        0.24511651        0.23268097
      69         -0.586828        2.000000        0.01110622        0.01710452        0.27522713        0.23302162
      70         -0.584109        2.000000        0.00018862        0.00039197        0.52998966        0.00307037
      71         -0.580455        2.000000        0.00024055        0.00152888        0.52212858        0.00363752
      72         -0.574227        2.000000        0.00708443        0.33456287        0.00208339        0.20072311
      73         -0.570485        2.000000        0.01803039        0.32195534        0.00123151        0.21802517
      74         -0.568450        2.000000        0.00882101        0.26931863        0.00130252        0.26725983
      75         -0.561774        2.000000        0.01291099        0.42977935        0.00609494        0.12346987
      76         -0.559684        2.000000        0.01432720        0.35157414        0.08815985        0.12576096
      77         -0.559416        2.000000        0.00262290        0.05724604        0.51893482        0.02108964
      78         -0.557691        2.000000        0.00048339        0.00633167        0.49028979        0.00334924
      79         -0.556686        2.000000        0.00018702        0.00448808        0.48948798        0.00179440
      80         -0.553952        2.000000        0.00873401        0.04149812        0.17282437        0.32645246
      81         -0.552992        2.000000        0.00496968        0.02283508        0.32141997        0.17594243
      82         -0.550902        2.000000        0.00025353        0.00138917        0.48395317        0.00609928
      83         -0.550549        2.000000        0.00011857        0.00077869        0.49148874        0.00058054
      84         -0.547716        2.000000        0.01481819        0.19014427        0.00392783        0.37631328
      85         -0.545222        2.000000        0.01623981        0.34282386        0.00470442        0.22348794
      86         -0.531639        2.000000        0.00064159        0.00149284        0.56584731        0.00124335
      87         -0.528398        2.000000        0.00043585        0.00106818        0.55259110        0.00130610
      88         -0.527306        2.000000        0.00242382        0.00637379        0.53690523        0.00468335
      89         -0.522623        2.000000        0.14817141        0.38891049        0.00945756        0.35835619
      90         -0.518041        2.000000        0.12945559        0.27759975        0.00532974        0.47488226
      91         -0.516381        2.000000        0.12367122        0.45582015        0.00212334        0.30159392
      92         -0.515804        2.000000        0.11985006        0.41617557        0.03793799        0.29301316
      93         -0.513572        2.000000        0.00281553        0.00855890        0.59868733        0.00821351
      94         -0.512453        2.000000        0.00560002        0.02148427        0.59449803        0.01494099
      95         -0.505983        2.000000        0.00069799        0.00151049        0.62075531        0.00145012
      96         -0.502983        2.000000        0.00202018        0.00556155        0.53346888        0.00402312
      97         -0.501788        2.000000        0.00492439        0.01197567        0.52462894        0.01500940
      98         -0.498908        2.000000        0.00597070        0.01576653        0.50037500        0.01979246
      99         -0.498264        2.000000        0.12032692        0.34088786        0.02261926        0.39923998
     100         -0.497998        2.000000        0.00922904        0.02852520        0.48973840        0.02244017
     101         -0.496225        2.000000        0.11156279        0.37116689        0.05212147        0.32938281
     102         -0.494152        2.000000        0.00134277        0.00351712        0.51863825        0.00359739
     103         -0.491146        2.000000        0.13295995        0.34585062        0.00407578        0.42047872
     104         -0.489479        2.000000        0.13341734        0.34935116        0.00667663        0.41130956
     105         -0.484117        2.000000        0.13454125        0.42870610        0.00225264        0.33700807
     106         -0.480223        2.000000        0.11420383        0.55087006        0.00210601        0.22332838
     107         -0.475068        2.000000        0.11291758        0.29471897        0.00125111        0.48586252
     108         -0.473436        2.000000        0.11885735        0.25209977        0.00200390        0.51947229
     109         -0.461463        2.000000        0.00068476        0.00216071        0.96761516        0.00222803
     110         -0.451890        2.000000        0.07761363        0.46210087        0.02085376        0.36950159
     111         -0.450504        2.000000        0.09728204        0.24151980        0.01536123        0.56771228
     112         -0.449531        2.000000        0.00339723        0.01954746        0.92270025        0.01472251
     113         -0.448000        2.000000        0.00238360        0.01260910        0.93713703        0.01144694
     114         -0.447075        2.000000        0.07479483        0.42984338        0.03344985        0.39001608
     115         -0.442850        2.000000        0.05666028        0.32920800        0.23770441        0.31571891
     116         -0.442532        2.000000        0.07801348        0.48193854        0.02596949        0.34201012
     117         -0.441735        2.000000        0.01999830        0.15455047        0.70863303        0.07483548
     118         -0.440239        2.000000        0.06477053        0.41967064        0.00327096        0.44586116
     119         -0.429103        2.000000        0.07672699        0.44437643        0.04585775        0.37096069
     120         -0.428055        2.000000        0.00482864        0.04092735        0.92413389        0.02323940
     121         -0.426373        2.000000        0.00113453        0.00760751        0.98077185        0.00832891
     122         -0.424737        2.000000        0.05465427        0.57524568        0.03780791        0.27339773
     123         -0.423451        2.000000        0.05171481        0.13897973        0.01707044        0.72960646
     124         -0.422964        2.000000        0.00261357        0.01625807        0.95179558        0.02464955
     125         -0.419751        2.000000        0.03400579        0.30506112        0.37482789        0.25074138
     126         -0.418914        2.000000        0.03040487        0.21095385        0.40452790        0.32054320
     127         -0.418484        2.000000        0.03853038        0.41142829        0.22237590        0.28583191
     128         -0.415893        2.000000        0.04792794        0.55325747        0.02099549        0.32467964
     129         -0.353072        0.000000        0.00003313        0.00034847        0.32998445        0.00032557
     130         -0.351017        0.000000        0.00003929        0.00017219        0.33777769        0.00018032
     131         -0.348450        0.000000        0.00004089        0.00017487        0.33199420        0.00036548
     132         -0.326683        0.000000        0.00004485        0.00015113        0.47187180        0.00028965
     133         -0.320874        0.000000        0.00006715        0.00015352        0.46671430        0.00010960
     134         -0.319116        0.000000        0.00005226        0.00023135        0.47122316        0.00029876
     135         -0.316582        0.000000        0.00005648        0.00016735        0.46564803        0.00015350
     136         -0.315915        0.000000        0.00006310        0.00024173        0.46900175        0.00010214
     137         -0.303532        0.000000        0.00004521        0.00006815        0.38710079        0.00012753
     138         -0.299786        0.000000        0.00009375        0.00014423        0.46533379        0.00014713
     139         -0.294085        0.000000        0.00004596        0.00009271        0.46772438        0.00007653
     140         -0.291397        0.000000        0.00003112        0.00007984        0.46461295        0.00010897
     141         -0.241994        0.000000        0.00005842        0.00012873        0.50886248        0.00009076
     142         -0.237668        0.000000        0.00004953        0.00003670        0.50938890        0.00024789
     143         -0.236920        0.000000        0.00006515        0.00012989        0.50482564        0.00008848
     144         -0.230346        0.000000        0.00002855        0.00004145        0.50705082        0.00007936
     145         -0.229876        0.000000        0.00007337        0.00010268        0.50990120        0.00009093
     146         -0.212904        0.000000        0.00004364        0.00008210        0.49419218        0.00006739
     147         -0.210662        0.000000        0.00003698        0.00006132        0.49510984        0.00010185
     148         -0.206806        0.000000        0.00002180        0.00005856        0.49513627        0.00008954
     149         -0.169689        0.000000        0.00003896        0.00005858        0.50484508        0.00006286
     150         -0.163983        0.000000        0.00004296        0.00004113        0.50635851        0.00003981
     151         -0.162424        0.000000        0.00002598        0.00006405        0.50491575        0.00003072
     152         -0.153522        0.000000        0.00001504        0.00004548        0.50333372        0.00002399
     153         -0.050247        0.000000        0.25272743        0.01618870        0.00015745        0.09577100
     154         -0.035654        0.000000        0.15889530        0.14499644        0.00020829        0.11807388
     155         -0.028317        0.000000        0.07357186        0.28916177        0.00014754        0.08748033
     156         -0.018666        0.000000        0.11059630        0.18876721        0.00015629        0.13088978
     157         -0.007316        0.000000        0.18322101        0.15012520        0.00024180        0.07814430
     158         -0.004250        0.000000        0.17908799        0.10909033        0.00015466        0.13443880
     159         -0.000070        0.000000        0.15360500        0.06767202        0.00016501        0.20867441
     160          0.012507        0.000000        0.16487469        0.11392605        0.00008395        0.14149248
     161          0.017972        0.000000        0.12875801        0.19191692        0.00010394        0.11732730
     162          0.023499        0.000000        0.12508454        0.13623103        0.00006751        0.17503483
     163          0.028890        0.000000        0.14864810        0.11253859        0.00006705        0.17165263
     164          0.042337        0.000000        0.08673388        0.14542629        0.00006043        0.22501937
     165          0.047100        0.000000        0.07223042        0.16716972        0.00005573        0.21224307
     166          0.051114        0.000000        0.09815340        0.12024890        0.00005427        0.22389742
     167          0.055661        0.000000        0.07978027        0.12654150        0.00003842        0.24065005
     168          0.057265        0.000000        0.07766668        0.12975976        0.00007171        0.24598576
     169          0.061665        0.000000        0.05165048        0.11584004        0.00011466        0.28722412
     170          0.067641        0.000000        0.14741007        0.11662397        0.00005019        0.17316570
     171          0.085827        0.000000        0.10044718        0.16820172        0.00008943        0.18344623
     172          0.091530        0.000000        0.12590374        0.12815692        0.00008033        0.17939599
     173          0.103167        0.000000        0.03636278        0.22981221        0.00008572        0.19648075
     174          0.105336        0.000000        0.03630211        0.26468041        0.00008628        0.17934547
     175          0.109521        0.000000        0.02627682        0.33153117        0.00003846        0.10356956
     176          0.126134        0.000000        0.02340156        0.31704286        0.00015773        0.12001110
     177          0.152233        0.000000        0.08146522        0.13944541        0.00004235        0.22912900
     178          0.170232        0.000000        0.03180601        0.21024800        0.00006455        0.21446252
