# Projected DOS for atomic kind C at iteration step i = 0, E(Fermi) =    -0.414821 a.u.
#     MO Eigenvalue [a.u.]      Occupation                 s                py                pz                px
       1         -0.860344        2.000000        0.16032645        0.11010889        0.00010765        0.09544439
       2         -0.857562        2.000000        0.16435115        0.10310353        0.00011256        0.09736117
       3         -0.854945        2.000000        0.16257909        0.10752426        0.00003306        0.09657977
       4         -0.839674        2.000000        0.16496122        0.10198743        0.00002499        0.09090670
       5         -0.836307        2.000000        0.16919070        0.08744267        0.00008963        0.09649249
       6         -0.831433        2.000000        0.17530256        0.09232948        0.00006377        0.08316809
       7         -0.830979        2.000000        0.16833989        0.09491040        0.00003139        0.08852483
       8         -0.814529        2.000000        0.20270541        0.06755735        0.00003894        0.07463112
       9         -0.808127        2.000000        0.22273565        0.08427300        0.00016797        0.10253117
      10         -0.806936        2.000000        0.18451578        0.07323821        0.00007858        0.14834415
      11         -0.806017        2.000000        0.24199256        0.11382184        0.00004447        0.04788973
      12         -0.802003        2.000000        0.23050738        0.09659259        0.00007850        0.07328494
      13         -0.801361        2.000000        0.22159630        0.09010443        0.00011222        0.09205498
      14         -0.800030        2.000000        0.21713860        0.10725147        0.00009630        0.07059571
      15         -0.799704        2.000000        0.17751372        0.12201331        0.00006557        0.10245490
      16         -0.798031        2.000000        0.17922857        0.09045376        0.00010338        0.12626417
      17         -0.797296        2.000000        0.19609992        0.08844451        0.00008735        0.10616279
      18         -0.797017        2.000000        0.16254885        0.12416660        0.00011197        0.10127337
      19         -0.795996        2.000000        0.16435043        0.13360062        0.00018182        0.09166403
      20         -0.795332        2.000000        0.16465454        0.07419946        0.00015778        0.14337819
      21         -0.794449        2.000000        0.10688770        0.12883713        0.00007726        0.15226901
      22         -0.793042        2.000000        0.17791070        0.11394076        0.00012215        0.08953817
      23         -0.789885        2.000000        0.14041781        0.10966460        0.00009138        0.12825717
      24         -0.789294        2.000000        0.12467707        0.08372373        0.00024426        0.17548398
      25         -0.788597        2.000000        0.11968094        0.15464044        0.00008692        0.10826333
      26         -0.787619        2.000000        0.08593038        0.13283230        0.00006013        0.16122070
      27         -0.787073        2.000000        0.08217413        0.15336342        0.00005370        0.14682169
      28         -0.785125        2.000000        0.10648188        0.15755350        0.00005150        0.12179044
      29         -0.783007        2.000000        0.10311696        0.14698871        0.00005112        0.12925549
      30         -0.782075        2.000000        0.06453575        0.15977088        0.00011792        0.14870645
      31         -0.780533        2.000000        0.03225786        0.16486037        0.00003993        0.17660927
      32         -0.775681        2.000000        0.01640569        0.17319342        0.00004937        0.18151008
      33         -0.701085        2.000000        0.38292189        0.05901277        0.00009999        0.05163901
      34         -0.699066        2.000000        0.38243144        0.06479271        0.00006270        0.04847200
      35         -0.696611        2.000000        0.38800557        0.05077191        0.00013247        0.06042369
      36         -0.692172        2.000000        0.38923776        0.05581008        0.00006941        0.05258739
      37         -0.688948        2.000000        0.39454906        0.06302197        0.00007702        0.04389174
      38         -0.688141        2.000000        0.36665429        0.03354765        0.00006805        0.08977950
      39         -0.683321        2.000000        0.33993630        0.07252758        0.00008997        0.06500260
      40         -0.679113        2.000000        0.34727880        0.06116811        0.00005028        0.07622075
      41         -0.674798        2.000000        0.31862294        0.06092240        0.00017225        0.08487918
      42         -0.671193        2.000000        0.29330190        0.10154512        0.00009789        0.06598985
      43         -0.668707        2.000000        0.29486650        0.08344068        0.00009012        0.08224410
      44         -0.662372        2.000000        0.31936820        0.09035629        0.00012292        0.08210693
      45         -0.660430        2.000000        0.17243057        0.16361002        0.00015569        0.13902870
      46         -0.658403        2.000000        0.17512613        0.14202372        0.00018268        0.16482182
      47         -0.650606        2.000000        0.09097054        0.14959123        0.00044084        0.18978151
      48         -0.646805        2.000000        0.08348539        0.16255939        0.00016539        0.18318805
      49         -0.642608        2.000000        0.06792479        0.20350259        0.00046274        0.17131760
      50         -0.641537        2.000000        0.09367863        0.16755668        0.00036132        0.17584852
      51         -0.638509        2.000000        0.06657038        0.25717064        0.00040395        0.12095746
      52         -0.637888        2.000000        0.07480652        0.18891836        0.00043621        0.18144396
      53         -0.632166        2.000000        0.06817706        0.25430113        0.00036945        0.12194257
      54         -0.631148        2.000000        0.06621506        0.13162240        0.00020497        0.24170902
      55         -0.628091        2.000000        0.10651365        0.21283943        0.00037705        0.15883883
      56         -0.625830        2.000000        0.12489474        0.21696154        0.00019988        0.14083532
      57         -0.621448        2.000000        0.07128927        0.20190710        0.00471473        0.19539049
      58         -0.619635        2.000000        0.00131599        0.00203506        0.46964830        0.00271769
      59         -0.615484        2.000000        0.00037817        0.00055312        0.46582868        0.00087555
      60         -0.612302        2.000000        0.00062993        0.00081464        0.46474129        0.00143278
      61         -0.606406        2.000000        0.09754961        0.09260292        0.00158557        0.27904616
      62         -0.604913        2.000000        0.09206127        0.08763348        0.00248158        0.28671954
      63         -0.603466        2.000000        0.00026402        0.00056545        0.47734591        0.00065548
      64         -0.594635        2.000000        0.10358457        0.24329844        0.00076419        0.11953606
      65         -0.593459        2.000000        0.10069998        0.05960204        0.00252191        0.29781608
      66         -0.591787        2.000000        0.08757838        0.29509808        0.00322739        0.05696736
      67         -0.588945        2.000000        0.02845181        0.01926557        0.33771362        0.07858488
      68         -0.588481        2.000000        0.07961879        0.22997812        0.02117872        0.12830837
      69         -0.587210        2.000000        0.08433623        0.03779271        0.11419885        0.22476859
      70         -0.585025        2.000000        0.00181971        0.00081636        0.45773489        0.00401414
      71         -0.581098        2.000000        0.00165405        0.00152055        0.46307281        0.00417124
      72         -0.574928        2.000000        0.02674499        0.23319311        0.00268354        0.19305627
      73         -0.571042        2.000000        0.05021313        0.22603487        0.00141322        0.16304964
      74         -0.568561        2.000000        0.02449337        0.21324990        0.00185037        0.21439309
      75         -0.562415        2.000000        0.02082846        0.30356474        0.00754889        0.09767524
      76         -0.560228        2.000000        0.01463206        0.21487110        0.13849534        0.04807752
      77         -0.560067        2.000000        0.00747636        0.10681389        0.26486294        0.02455106
      78         -0.557785        2.000000        0.00084167        0.00559099        0.49331480        0.00228229
      79         -0.556780        2.000000        0.00075519        0.00414349        0.49714208        0.00163339
      80         -0.554553        2.000000        0.00838634        0.02260380        0.05969299        0.34109852
      81         -0.552844        2.000000        0.00134737        0.00651638        0.44000561        0.04551535
      82         -0.550594        2.000000        0.00034304        0.00078677        0.50124764        0.00543915
      83         -0.550083        2.000000        0.00032014        0.00082928        0.50496038        0.00049257
      84         -0.548340        2.000000        0.01475135        0.10438024        0.00743884        0.28941462
      85         -0.545483        2.000000        0.01658806        0.27428506        0.00667193        0.11617391
      86         -0.531875        2.000000        0.00088073        0.00021010        0.42935133        0.00063719
      87         -0.528465        2.000000        0.00033614        0.00037238        0.44454283        0.00038751
      88         -0.527346        2.000000        0.00193799        0.00120259        0.44676965        0.00065724
      89         -0.522030        2.000000        0.05796752        0.01350707        0.00946367        0.01480025
      90         -0.517543        2.000000        0.02313408        0.07358347        0.00557375        0.01195770
      91         -0.515844        2.000000        0.01806557        0.03543519        0.00221941        0.06155619
      92         -0.515387        2.000000        0.01583714        0.03096400        0.04170507        0.05758733
      93         -0.513594        2.000000        0.00116951        0.00176931        0.37343792        0.00186571
      94         -0.512405        2.000000        0.00156284        0.00266471        0.34130645        0.00696551
      95         -0.505517        2.000000        0.00042306        0.00012405        0.37728767        0.00055236
      96         -0.502937        2.000000        0.00085784        0.00048821        0.45143881        0.00120650
      97         -0.501699        2.000000        0.00089522        0.00270458        0.43267802        0.00192791
      98         -0.498800        2.000000        0.00085880        0.00297467        0.45438573        0.00110777
      99         -0.497960        2.000000        0.00805120        0.04394719        0.14265640        0.01939908
     100         -0.497862        2.000000        0.00327662        0.01002558        0.32860019        0.01967847
     101         -0.495522        2.000000        0.01402817        0.03085023        0.04049668        0.04224166
     102         -0.493795        2.000000        0.00037054        0.00049190        0.46916524        0.00117903
     103         -0.490621        2.000000        0.03794929        0.01722701        0.00486144        0.03741560
     104         -0.488884        2.000000        0.04193878        0.01417544        0.00771747        0.03647859
     105         -0.483840        2.000000        0.04562964        0.03440774        0.00191646        0.01561357
     106         -0.479653        2.000000        0.01038009        0.02512074        0.00227147        0.07114144
     107         -0.474527        2.000000        0.01447453        0.05218765        0.00067234        0.03726436
     108         -0.472866        2.000000        0.01420471        0.06453083        0.00237853        0.02578853
     109         -0.461594        2.000000        0.00017390        0.00035968        0.02749233        0.00029908
     110         -0.451543        2.000000        0.00820463        0.03667492        0.00256199        0.02188111
     111         -0.450099        2.000000        0.00621191        0.02433719        0.00491409        0.03793862
     112         -0.449795        2.000000        0.00116795        0.00472793        0.03311633        0.00643747
     113         -0.448236        2.000000        0.00045773        0.00093317        0.03525389        0.00064925
     114         -0.446339        2.000000        0.00631429        0.03638951        0.00100977        0.02875848
     115         -0.442546        2.000000        0.01033866        0.01059320        0.01429201        0.01713157
     116         -0.442098        2.000000        0.01798923        0.01921851        0.00300056        0.02976761
     117         -0.441342        2.000000        0.01040627        0.01327421        0.01641623        0.01253347
     118         -0.439480        2.000000        0.01577601        0.01983098        0.00018993        0.03027224
     119         -0.428561        2.000000        0.00135259        0.02676054        0.00057706        0.02514556
     120         -0.428070        2.000000        0.00110334        0.00695686        0.00198825        0.00454513
     121         -0.426207        2.000000        0.00017114        0.00050505        0.00130060        0.00076225
     122         -0.424132        2.000000        0.01125569        0.03232094        0.00063387        0.01430307
     123         -0.422997        2.000000        0.01195492        0.00837099        0.00066114        0.03720973
     124         -0.422669        2.000000        0.00159660        0.00127270        0.00178279        0.00459687
     125         -0.419276        2.000000        0.00526492        0.00831720        0.00186848        0.00662535
     126         -0.418266        2.000000        0.01021812        0.01445744        0.00134646        0.01515738
     127         -0.417631        2.000000        0.01146328        0.02034282        0.00041898        0.01528493
     128         -0.414821        2.000000        0.01253549        0.02431611        0.00016886        0.01548913
     129         -0.353429        0.000000        0.00060866        0.00009898        0.66647512        0.00034864
     130         -0.351121        0.000000        0.00028627        0.00011038        0.65861419        0.00029869
     131         -0.348544        0.000000        0.00059390        0.00015675        0.66445982        0.00030610
     132         -0.327176        0.000000        0.00062711        0.00011814        0.52582605        0.00019324
     133         -0.321071        0.000000        0.00063686        0.00018112        0.53129867        0.00019085
     134         -0.319266        0.000000        0.00046249        0.00007368        0.52687603        0.00020549
     135         -0.316485        0.000000        0.00031547        0.00019570        0.53258590        0.00014731
     136         -0.315825        0.000000        0.00034773        0.00009502        0.53050675        0.00005585
     137         -0.303129        0.000000        0.00067529        0.00008245        0.61110184        0.00020222
     138         -0.299745        0.000000        0.00075245        0.00016533        0.53344197        0.00013530
     139         -0.293672        0.000000        0.00036854        0.00015736        0.53161165        0.00007112
     140         -0.290817        0.000000        0.00033152        0.00008998        0.53468717        0.00013458
     141         -0.242526        0.000000        0.00061081        0.00012544        0.49007478        0.00007199
     142         -0.238014        0.000000        0.00078330        0.00012178        0.48932414        0.00013368
     143         -0.237047        0.000000        0.00046096        0.00013946        0.49441819        0.00007490
     144         -0.230134        0.000000        0.00021853        0.00007104        0.49252437        0.00010417
     145         -0.229598        0.000000        0.00028566        0.00015034        0.48952396        0.00009463
     146         -0.212615        0.000000        0.00055483        0.00008137        0.50509237        0.00005931
     147         -0.210239        0.000000        0.00038042        0.00005856        0.50447967        0.00009144
     148         -0.206273        0.000000        0.00029520        0.00007567        0.50439851        0.00010212
     149         -0.169947        0.000000        0.00080826        0.00008563        0.49437951        0.00007346
     150         -0.163578        0.000000        0.00055479        0.00006343        0.49302893        0.00006160
     151         -0.162216        0.000000        0.00027518        0.00004535        0.49495397        0.00006325
     152         -0.153082        0.000000        0.00039981        0.00002702        0.49630020        0.00005196
     153         -0.050990        0.000000        0.29650846        0.13732445        0.00056861        0.19809626
     154         -0.035578        0.000000        0.35129997        0.11359679        0.00045589        0.10788475
     155         -0.028461        0.000000        0.27558307        0.20827677        0.00034775        0.06550676
     156         -0.019191        0.000000        0.28735872        0.15947089        0.00028725        0.12046811
     157         -0.006575        0.000000        0.30608675        0.17216690        0.00050878        0.09126433
     158         -0.000746        0.000000        0.39116104        0.09611905        0.00030007        0.09297454
     159          0.002712        0.000000        0.36838659        0.08739972        0.00010213        0.12776764
     160          0.016418        0.000000        0.34747437        0.12552313        0.00051086        0.10881021
     161          0.020421        0.000000        0.29689766        0.08028263        0.00023211        0.18258309
     162          0.023569        0.000000        0.36555193        0.10623814        0.00036360        0.09929194
     163          0.031408        0.000000        0.34958328        0.08122594        0.00029857        0.12567505
     164          0.044861        0.000000        0.29618924        0.07334463        0.00045077        0.19578297
     165          0.047651        0.000000        0.32301999        0.05658340        0.00028834        0.16580429
     166          0.054008        0.000000        0.33258556        0.07680835        0.00042146        0.14509890
     167          0.054925        0.000000        0.37449687        0.03516467        0.00129911        0.13585746
     168          0.058351        0.000000        0.32800826        0.04094861        0.00118851        0.17452129
     169          0.060243        0.000000        0.33316769        0.08865414        0.00080900        0.11105737
     170          0.067114        0.000000        0.39440634        0.06226891        0.00062622        0.10766448
     171          0.087547        0.000000        0.40999356        0.07501159        0.00227366        0.05982430
     172          0.094142        0.000000        0.37216894        0.05738169        0.00041049        0.13723374
     173          0.104848        0.000000        0.33241837        0.09476802        0.00048469        0.11020965
     174          0.106936        0.000000        0.40346849        0.07665706        0.00064063        0.03816589
     175          0.110324        0.000000        0.30889091        0.18748357        0.00012007        0.04114556
     176          0.129876        0.000000        0.27954736        0.23552462        0.00027218        0.02492704
     177          0.148800        0.000000        0.14602913        0.29103408        0.00008524        0.11530914
     178          0.170780        0.000000        0.17350118        0.12029256        0.00018885        0.25037976
