# Projected DOS for atomic kind N at iteration step i = 0, E(Fermi) =    -0.414821 a.u.
#     MO Eigenvalue [a.u.]      Occupation                 s                py                pz                px
       1         -0.860344        2.000000        0.62181316        0.00614208        0.00000258        0.00605479
       2         -0.857562        2.000000        0.62139250        0.00670359        0.00000305        0.00697245
       3         -0.854945        2.000000        0.62013586        0.00666126        0.00000277        0.00648391
       4         -0.839674        2.000000        0.62614435        0.00778455        0.00000447        0.00818629
       5         -0.836307        2.000000        0.63569679        0.00590787        0.00000371        0.00517613
       6         -0.831433        2.000000        0.63619640        0.00592357        0.00001300        0.00700315
       7         -0.830979        2.000000        0.63644378        0.00554995        0.00000234        0.00619741
       8         -0.814529        2.000000        0.63955656        0.00783650        0.00000199        0.00767214
       9         -0.808127        2.000000        0.53791274        0.02121686        0.00002191        0.03114070
      10         -0.806936        2.000000        0.54535586        0.02320208        0.00000927        0.02525606
      11         -0.806017        2.000000        0.54604350        0.02849860        0.00000638        0.02170292
      12         -0.802003        2.000000        0.54950289        0.02513966        0.00001968        0.02487436
      13         -0.801361        2.000000        0.54598778        0.02591026        0.00001834        0.02421570
      14         -0.800030        2.000000        0.56531549        0.02529331        0.00001593        0.01429321
      15         -0.799704        2.000000        0.55621509        0.02034884        0.00001098        0.02137761
      16         -0.798031        2.000000        0.56381023        0.01490575        0.00003486        0.02519928
      17         -0.797296        2.000000        0.57572373        0.01791571        0.00001010        0.01555589
      18         -0.797017        2.000000        0.58470037        0.01138709        0.00001198        0.01579976
      19         -0.795996        2.000000        0.58304250        0.01103637        0.00003855        0.01608568
      20         -0.795332        2.000000        0.59754616        0.01034139        0.00002757        0.00969492
      21         -0.794449        2.000000        0.59308148        0.01056084        0.00001506        0.00827152
      22         -0.793042        2.000000        0.59863714        0.00918871        0.00001997        0.01064239
      23         -0.789885        2.000000        0.60392573        0.00988637        0.00001740        0.00773954
      24         -0.789294        2.000000        0.59863899        0.01234169        0.00002444        0.00486583
      25         -0.788597        2.000000        0.59787600        0.00879470        0.00001606        0.01064161
      26         -0.787619        2.000000        0.59857742        0.01099053        0.00002127        0.01036727
      27         -0.787073        2.000000        0.59924018        0.00867312        0.00001343        0.00966032
      28         -0.785125        2.000000        0.59133495        0.01086184        0.00001126        0.01191462
      29         -0.783007        2.000000        0.60219170        0.01103808        0.00000947        0.00734847
      30         -0.782075        2.000000        0.60974269        0.00825965        0.00002133        0.00884534
      31         -0.780533        2.000000        0.60957176        0.00683661        0.00000789        0.00981631
      32         -0.775681        2.000000        0.61869177        0.00467443        0.00001039        0.00546485
      33         -0.701085        2.000000        0.01236620        0.29907100        0.00005810        0.19483104
      34         -0.699066        2.000000        0.01216095        0.31192407        0.00007945        0.18007667
      35         -0.696611        2.000000        0.01067556        0.14413134        0.00004351        0.34581596
      36         -0.692172        2.000000        0.01688648        0.29879051        0.00008571        0.18653267
      37         -0.688948        2.000000        0.01667527        0.20725831        0.00008818        0.27443846
      38         -0.688141        2.000000        0.02641794        0.18148145        0.00006367        0.30198746
      39         -0.683321        2.000000        0.04757435        0.33114407        0.00012546        0.14359967
      40         -0.679113        2.000000        0.03955504        0.16083302        0.00015158        0.31474241
      41         -0.674798        2.000000        0.05363392        0.26708389        0.00028375        0.21440169
      42         -0.671193        2.000000        0.05882794        0.27163760        0.00013085        0.20846885
      43         -0.668707        2.000000        0.05745000        0.24914463        0.00009194        0.23267202
      44         -0.662372        2.000000        0.02783748        0.24834517        0.00012507        0.23173794
      45         -0.660430        2.000000        0.02626149        0.31044051        0.00025373        0.18781930
      46         -0.658403        2.000000        0.01938111        0.20967857        0.00017233        0.28861363
      47         -0.650606        2.000000        0.05711272        0.22833564        0.00088684        0.28288068
      48         -0.646805        2.000000        0.05642295        0.26258518        0.00011115        0.25148250
      49         -0.642608        2.000000        0.04212492        0.19806115        0.00067814        0.31592808
      50         -0.641537        2.000000        0.05011555        0.17196562        0.00039469        0.34007900
      51         -0.638509        2.000000        0.03940365        0.26909453        0.00052988        0.24586952
      52         -0.637888        2.000000        0.04041227        0.25074607        0.00058755        0.26264905
      53         -0.632166        2.000000        0.04059900        0.27661777        0.00034840        0.23764463
      54         -0.631148        2.000000        0.04413503        0.19553231        0.00019020        0.32039101
      55         -0.628091        2.000000        0.01475821        0.40679675        0.00045434        0.09942173
      56         -0.625830        2.000000        0.01489735        0.41316243        0.00037777        0.08867099
      57         -0.621448        2.000000        0.01780619        0.27595491        0.00535116        0.22758614
      58         -0.619635        2.000000        0.00029378        0.00334123        0.51734069        0.00330727
      59         -0.615484        2.000000        0.00017585        0.00138290        0.52940569        0.00140004
      60         -0.612302        2.000000        0.00020276        0.00130011        0.52911422        0.00176426
      61         -0.606406        2.000000        0.02095365        0.11150921        0.00151234        0.39524055
      62         -0.604913        2.000000        0.02004143        0.10828615        0.00301559        0.39976096
      63         -0.603466        2.000000        0.00005300        0.00046623        0.51968617        0.00096376
      64         -0.594635        2.000000        0.01886601        0.40653965        0.00082051        0.10659057
      65         -0.593459        2.000000        0.02062611        0.04408935        0.00251238        0.47213215
      66         -0.591787        2.000000        0.02754252        0.28345826        0.00363584        0.24249217
      67         -0.588945        2.000000        0.00524998        0.01979405        0.38688970        0.12405038
      68         -0.588481        2.000000        0.01509515        0.39930928        0.02409446        0.10241711
      69         -0.587210        2.000000        0.01705954        0.02597597        0.13089629        0.36497182
      70         -0.585025        2.000000        0.00036390        0.00059571        0.52818473        0.00647056
      71         -0.581098        2.000000        0.00035872        0.00232511        0.52130943        0.00558808
      72         -0.574928        2.000000        0.00745767        0.33939896        0.00295136        0.19451409
      73         -0.571042        2.000000        0.01833776        0.31973718        0.00162254        0.21959165
      74         -0.568561        2.000000        0.00860385        0.26377066        0.00184792        0.27179084
      75         -0.562415        2.000000        0.01226824        0.42958804        0.00744987        0.12107652
      76         -0.560228        2.000000        0.01098583        0.27530083        0.19840843        0.09922888
      77         -0.560067        2.000000        0.00572263        0.13415425        0.40883624        0.04758264
      78         -0.557785        2.000000        0.00054450        0.00666413        0.48690574        0.00385589
      79         -0.556780        2.000000        0.00024882        0.00529734        0.48844951        0.00233017
      80         -0.554553        2.000000        0.01163949        0.05689758        0.05863153        0.44104976
      81         -0.552844        2.000000        0.00197053        0.01256620        0.43196438        0.06011418
      82         -0.550594        2.000000        0.00031115        0.00149058        0.48320643        0.00717524
      83         -0.550083        2.000000        0.00016212        0.00109677        0.49153517        0.00060356
      84         -0.548340        2.000000        0.01458736        0.18356667        0.00762429        0.37823662
      85         -0.545483        2.000000        0.01599299        0.34309810        0.00739174        0.21979821
      86         -0.531875        2.000000        0.00081125        0.00185625        0.56464608        0.00160707
      87         -0.528465        2.000000        0.00057409        0.00140052        0.55066470        0.00172183
      88         -0.527346        2.000000        0.00256408        0.00690394        0.53512271        0.00484179
      89         -0.522030        2.000000        0.14719614        0.38932989        0.01038525        0.35735022
      90         -0.517543        2.000000        0.12839411        0.27849905        0.00888255        0.46997529
      91         -0.515844        2.000000        0.12220167        0.45601832        0.00441705        0.30008659
      92         -0.515387        2.000000        0.11347334        0.39221364        0.07069163        0.27752785
      93         -0.513594        2.000000        0.00467549        0.01419170        0.58862992        0.01426045
      94         -0.512405        2.000000        0.01094105        0.04201457        0.56537340        0.02917146
      95         -0.505517        2.000000        0.00094238        0.00204123        0.61668597        0.00194327
      96         -0.502937        2.000000        0.00250777        0.00687502        0.53161551        0.00501034
      97         -0.501699        2.000000        0.00613012        0.01481580        0.52225446        0.01859388
      98         -0.498800        2.000000        0.00562254        0.01459897        0.50154813        0.01890340
      99         -0.497960        2.000000        0.08895056        0.23379899        0.15754882        0.30564776
     100         -0.497862        2.000000        0.03784895        0.12538195        0.36746142        0.10772682
     101         -0.495522        2.000000        0.11374067        0.37887290        0.04221493        0.33755475
     102         -0.493795        2.000000        0.00201557        0.00540276        0.51561831        0.00575665
     103         -0.490621        2.000000        0.13161975        0.34280326        0.00526179        0.42286186
     104         -0.488884        2.000000        0.13269981        0.35050914        0.00842207        0.40805870
     105         -0.483840        2.000000        0.13332378        0.42694082        0.00328842        0.33887957
     106         -0.479653        2.000000        0.11443134        0.54077142        0.00286236        0.23302114
     107         -0.474527        2.000000        0.11192654        0.30469240        0.00172244        0.47705975
     108         -0.472866        2.000000        0.11878158        0.25386407        0.00276425        0.51768748
     109         -0.461594        2.000000        0.00091615        0.00283692        0.96487953        0.00304241
     110         -0.451543        2.000000        0.07467535        0.43991966        0.04881011        0.36727223
     111         -0.450099        2.000000        0.08560326        0.22879955        0.11850520        0.49369017
     112         -0.449795        2.000000        0.01538016        0.05111287        0.80519636        0.08286094
     113         -0.448236        2.000000        0.00203269        0.01164411        0.93805335        0.01097581
     114         -0.446339        2.000000        0.07532360        0.43972899        0.01991316        0.39256221
     115         -0.442546        2.000000        0.03947382        0.22322341        0.45093013        0.23401719
     116         -0.442098        2.000000        0.07236599        0.41240766        0.06811747        0.37713298
     117         -0.441342        2.000000        0.04039210        0.32347362        0.45219134        0.13131276
     118         -0.439480        2.000000        0.06374158        0.41604568        0.00478256        0.44936100
     119         -0.428561        2.000000        0.06516994        0.38917193        0.17373255        0.31808984
     120         -0.428070        2.000000        0.01403646        0.10639054        0.79985070        0.06512872
     121         -0.426207        2.000000        0.00165864        0.01100786        0.97197657        0.01261789
     122         -0.424132        2.000000        0.05455498        0.55728541        0.04217223        0.28747381
     123         -0.422997        2.000000        0.04784362        0.14249370        0.08642237        0.66504353
     124         -0.422669        2.000000        0.00615733        0.02316022        0.87682440        0.08460909
     125         -0.419276        2.000000        0.01986137        0.17714803        0.63899588        0.14191877
     126         -0.418266        2.000000        0.03781539        0.27624839        0.25337412        0.39138270
     127         -0.417631        2.000000        0.04326252        0.47245973        0.10647456        0.33029318
     128         -0.414821        2.000000        0.04615956        0.56294567        0.02399384        0.31439135
     129         -0.353429        0.000000        0.00004701        0.00049157        0.33147299        0.00045702
     130         -0.351121        0.000000        0.00005455        0.00025935        0.34011196        0.00026461
     131         -0.348544        0.000000        0.00005684        0.00024559        0.33365677        0.00052423
     132         -0.327176        0.000000        0.00006286        0.00021056        0.47254702        0.00041502
     133         -0.321071        0.000000        0.00009538        0.00021970        0.46722279        0.00015462
     134         -0.319266        0.000000        0.00007325        0.00032796        0.47155899        0.00042210
     135         -0.316485        0.000000        0.00007924        0.00023655        0.46621630        0.00022353
     136         -0.315825        0.000000        0.00008940        0.00032998        0.46843391        0.00014136
     137         -0.303129        0.000000        0.00006279        0.00009620        0.38759941        0.00017980
     138         -0.299745        0.000000        0.00013265        0.00020000        0.46496600        0.00020630
     139         -0.293672        0.000000        0.00006314        0.00012651        0.46749481        0.00010687
     140         -0.290817        0.000000        0.00004409        0.00011041        0.46444955        0.00015270
     141         -0.242526        0.000000        0.00008063        0.00017663        0.50872970        0.00013003
     142         -0.238014        0.000000        0.00007026        0.00005469        0.50916116        0.00035099
     143         -0.237047        0.000000        0.00009086        0.00017731        0.50450969        0.00012863
     144         -0.230134        0.000000        0.00004667        0.00007852        0.50685606        0.00010064
     145         -0.229598        0.000000        0.00009608        0.00012286        0.50958785        0.00013863
     146         -0.212615        0.000000        0.00006179        0.00011342        0.49394093        0.00009598
     147         -0.210239        0.000000        0.00005177        0.00008690        0.49471035        0.00014089
     148         -0.206273        0.000000        0.00003003        0.00008134        0.49489011        0.00012702
     149         -0.169947        0.000000        0.00005626        0.00008111        0.50442613        0.00008965
     150         -0.163578        0.000000        0.00005929        0.00005709        0.50611828        0.00005659
     151         -0.162216        0.000000        0.00003593        0.00009159        0.50448943        0.00004530
     152         -0.153082        0.000000        0.00002165        0.00006268        0.50310188        0.00003481
     153         -0.050990        0.000000        0.24321708        0.01701881        0.00022302        0.10704330
     154         -0.035578        0.000000        0.14819437        0.15573989        0.00029568        0.12253265
     155         -0.028461        0.000000        0.07292172        0.29650498        0.00021654        0.08064241
     156         -0.019191        0.000000        0.10571683        0.18807415        0.00022347        0.13840057
     157         -0.006575        0.000000        0.13258222        0.17221132        0.00031821        0.12486148
     158         -0.000746        0.000000        0.19390607        0.09979341        0.00021208        0.12553373
     159          0.002712        0.000000        0.20015348        0.05810739        0.00026717        0.15781588
     160          0.016418        0.000000        0.17839458        0.10755462        0.00013120        0.13160103
     161          0.020421        0.000000        0.09583624        0.14388674        0.00009240        0.20018913
     162          0.023569        0.000000        0.16967262        0.15808099        0.00014616        0.10065463
     163          0.031408        0.000000        0.13516857        0.12081009        0.00009106        0.18714745
     164          0.044861        0.000000        0.10312038        0.12337128        0.00008843        0.20765229
     165          0.047651        0.000000        0.07636020        0.14851314        0.00005995        0.22937069
     166          0.054008        0.000000        0.09649122        0.10999747        0.00005820        0.23853882
     167          0.054925        0.000000        0.07714247        0.12534018        0.00011145        0.25058779
     168          0.058351        0.000000        0.06129407        0.11090338        0.00012575        0.28301013
     169          0.060243        0.000000        0.06160285        0.18476076        0.00010558        0.21984260
     170          0.067114        0.000000        0.15548753        0.12093858        0.00007338        0.15853456
     171          0.087547        0.000000        0.10263686        0.16397020        0.00011680        0.18617303
     172          0.094142        0.000000        0.12739741        0.13089081        0.00011674        0.17440019
     173          0.104848        0.000000        0.03678361        0.23407929        0.00011467        0.19114171
     174          0.106936        0.000000        0.04020823        0.25638945        0.00011469        0.18435556
     175          0.110324        0.000000        0.02771285        0.32818871        0.00005911        0.10639922
     176          0.129876        0.000000        0.02361708        0.31407661        0.00022909        0.12180601
     177          0.148800        0.000000        0.08823429        0.13322838        0.00006481        0.22601492
     178          0.170780        0.000000        0.03344992        0.20931087        0.00008959        0.21278727
