# Projected DOS for atomic kind C at iteration step i = 0, E(Fermi) =    -0.415893 a.u.
#     MO Eigenvalue [a.u.]      Occupation                 s                py                pz                px
       1         -0.860392        2.000000        0.16033513        0.10928517        0.00007749        0.09626280
       2         -0.857700        2.000000        0.16388054        0.10308129        0.00008132        0.09781468
       3         -0.854993        2.000000        0.16242511        0.10697678        0.00002422        0.09703975
       4         -0.841374        2.000000        0.16624023        0.10182010        0.00001721        0.09003452
       5         -0.834244        2.000000        0.16897433        0.08642832        0.00006566        0.09641969
       6         -0.829549        2.000000        0.17739602        0.09036015        0.00004394        0.08171696
       7         -0.829169        2.000000        0.17001311        0.09315340        0.00002319        0.08707644
       8         -0.814016        2.000000        0.20501563        0.06656549        0.00002808        0.07304611
       9         -0.807838        2.000000        0.22514117        0.07673766        0.00011776        0.10686563
      10         -0.806708        2.000000        0.18675419        0.07117493        0.00006504        0.14910261
      11         -0.805604        2.000000        0.24020371        0.11925955        0.00003780        0.04341518
      12         -0.802085        2.000000        0.23085791        0.09090382        0.00006063        0.07903308
      13         -0.801428        2.000000        0.22373247        0.10381204        0.00006973        0.07665203
      14         -0.800206        2.000000        0.21764710        0.12173668        0.00006357        0.05856382
      15         -0.799746        2.000000        0.18101762        0.10334860        0.00006396        0.11715098
      16         -0.798317        2.000000        0.18754379        0.08603293        0.00006707        0.12380553
      17         -0.797151        2.000000        0.17894852        0.12083324        0.00008266        0.09295529
      18         -0.796894        2.000000        0.18251820        0.08731739        0.00006351        0.11367998
      19         -0.796143        2.000000        0.15584291        0.14117927        0.00013508        0.09226011
      20         -0.795425        2.000000        0.16034385        0.07898314        0.00011258        0.14310155
      21         -0.794449        2.000000        0.10751636        0.12318954        0.00005258        0.15690048
      22         -0.793235        2.000000        0.17474219        0.11940696        0.00008281        0.08786367
      23         -0.790231        2.000000        0.14151217        0.10661754        0.00005424        0.13096412
      24         -0.789529        2.000000        0.12355301        0.08487897        0.00017418        0.17593910
      25         -0.789041        2.000000        0.12172029        0.15355557        0.00006754        0.10811934
      26         -0.787942        2.000000        0.11162523        0.13651487        0.00004915        0.13084126
      27         -0.787231        2.000000        0.05278776        0.15427232        0.00003158        0.17654508
      28         -0.785657        2.000000        0.10418993        0.15537588        0.00003492        0.12710229
      29         -0.783586        2.000000        0.10155853        0.14976109        0.00003746        0.12916932
      30         -0.782639        2.000000        0.06019397        0.16473044        0.00008124        0.14857804
      31         -0.780951        2.000000        0.03130874        0.16453398        0.00002664        0.17827586
      32         -0.776209        2.000000        0.01525433        0.17364129        0.00003394        0.18277681
      33         -0.700398        2.000000        0.38289774        0.05922097        0.00007132        0.05124873
      34         -0.698375        2.000000        0.38267904        0.06395532        0.00004678        0.04847106
      35         -0.696042        2.000000        0.39031666        0.05058610        0.00009307        0.05894000
      36         -0.691799        2.000000        0.39130672        0.05488694        0.00005234        0.05189823
      37         -0.688713        2.000000        0.39637643        0.06210403        0.00005505        0.04337708
      38         -0.688020        2.000000        0.36771838        0.03282962        0.00004747        0.08979579
      39         -0.682928        2.000000        0.34129148        0.07318921        0.00006470        0.06342120
      40         -0.679133        2.000000        0.34859582        0.06009453        0.00003625        0.07602780
      41         -0.674763        2.000000        0.31845662        0.06055131        0.00012214        0.08465041
      42         -0.671287        2.000000        0.29392210        0.09973011        0.00006838        0.06528371
      43         -0.669152        2.000000        0.29579991        0.08254467        0.00006330        0.08054835
      44         -0.662305        2.000000        0.32272766        0.08945066        0.00008939        0.08028798
      45         -0.659558        2.000000        0.16846326        0.16443417        0.00011119        0.14369161
      46         -0.657854        2.000000        0.16857792        0.14616574        0.00012996        0.16738917
      47         -0.650456        2.000000        0.08851828        0.15074758        0.00031675        0.19108417
      48         -0.646917        2.000000        0.08093819        0.16388484        0.00011615        0.18437641
      49         -0.642830        2.000000        0.06883879        0.19988093        0.00031383        0.17316876
      50         -0.641796        2.000000        0.08796705        0.16990060        0.00027058        0.17967142
      51         -0.638550        2.000000        0.06901589        0.25647413        0.00030819        0.11937445
      52         -0.637921        2.000000        0.07560040        0.18484455        0.00030559        0.18438737
      53         -0.632790        2.000000        0.06613956        0.25445738        0.00024468        0.12425967
      54         -0.631881        2.000000        0.06390964        0.12728688        0.00013201        0.24689664
      55         -0.627628        2.000000        0.11299526        0.21554951        0.00030001        0.15251099
      56         -0.625518        2.000000        0.12803214        0.21842638        0.00014792        0.13761983
      57         -0.621499        2.000000        0.07773495        0.20443150        0.00270381        0.19059926
      58         -0.619462        2.000000        0.00086782        0.00118266        0.47171747        0.00163748
      59         -0.615504        2.000000        0.00027238        0.00039834        0.46647259        0.00059269
      60         -0.612358        2.000000        0.00043781        0.00056969        0.46601570        0.00094318
      61         -0.606005        2.000000        0.09672205        0.09178069        0.00119475        0.28055874
      62         -0.604477        2.000000        0.09028021        0.08611324        0.01313407        0.27933449
      63         -0.604335        2.000000        0.00234297        0.00299808        0.46565231        0.00711716
      64         -0.594002        2.000000        0.11014212        0.24286276        0.00055027        0.11507154
      65         -0.592778        2.000000        0.10267201        0.05529781        0.00153579        0.30039193
      66         -0.591025        2.000000        0.08098136        0.30054583        0.00203354        0.05823128
      67         -0.588377        2.000000        0.08280393        0.22462138        0.01385267        0.13735588
      68         -0.587989        2.000000        0.05336558        0.04027936        0.21622763        0.15180519
      69         -0.586828        2.000000        0.05443845        0.02561340        0.24143622        0.14205245
      70         -0.584109        2.000000        0.00094436        0.00046687        0.46300707        0.00194107
      71         -0.580455        2.000000        0.00107770        0.00100885        0.46767960        0.00269832
      72         -0.574227        2.000000        0.02471026        0.23207591        0.00188528        0.19687476
      73         -0.570485        2.000000        0.04904284        0.22264041        0.00107124        0.16800311
      74         -0.568450        2.000000        0.02528602        0.21256703        0.00132675        0.21411822
      75         -0.561774        2.000000        0.02096050        0.30723353        0.00619193        0.09335888
      76         -0.559684        2.000000        0.01873528        0.27533568        0.06594371        0.06016319
      77         -0.559416        2.000000        0.00333263        0.04584692        0.33990420        0.01102285
      78         -0.557691        2.000000        0.00073226        0.00530576        0.49175956        0.00174833
      79         -0.556686        2.000000        0.00054295        0.00348346        0.49874654        0.00126957
      80         -0.553952        2.000000        0.00629429        0.01666661        0.17572439        0.25180574
      81         -0.552992        2.000000        0.00333711        0.00797874        0.32789714        0.13561984
      82         -0.550902        2.000000        0.00026914        0.00068466        0.50275346        0.00459759
      83         -0.550549        2.000000        0.00023842        0.00058768        0.50572776        0.00047961
      84         -0.547716        2.000000        0.01474103        0.10951935        0.00378137        0.28675469
      85         -0.545222        2.000000        0.01637942        0.27217934        0.00417381        0.12001140
      86         -0.531639        2.000000        0.00065670        0.00016048        0.42950462        0.00045311
      87         -0.528398        2.000000        0.00024657        0.00027477        0.44379299        0.00028443
      88         -0.527306        2.000000        0.00168303        0.00090147        0.44648759        0.00054172
      89         -0.522623        2.000000        0.05854789        0.01339979        0.00853959        0.01461709
      90         -0.518041        2.000000        0.02302547        0.07466117        0.00327543        0.01177059
      91         -0.516381        2.000000        0.01829990        0.03534539        0.00104225        0.06210383
      92         -0.515804        2.000000        0.01665410        0.03290573        0.02226898        0.06119440
      93         -0.513572        2.000000        0.00077472        0.00103828        0.37875161        0.00116011
      94         -0.512453        2.000000        0.00082054        0.00134480        0.35762502        0.00368632
      95         -0.505983        2.000000        0.00029327        0.00010541        0.37480370        0.00038372
      96         -0.502983        2.000000        0.00065674        0.00034824        0.45294933        0.00097198
      97         -0.501788        2.000000        0.00071943        0.00220890        0.43905284        0.00148042
      98         -0.498908        2.000000        0.00083997        0.00299035        0.45307596        0.00118903
      99         -0.498264        2.000000        0.00953506        0.05243130        0.01865583        0.03630378
     100         -0.497998        2.000000        0.00158911        0.00294188        0.44180546        0.00373075
     101         -0.496225        2.000000        0.01310487        0.03027057        0.04966595        0.04272465
     102         -0.494152        2.000000        0.00028800        0.00028893        0.47152803        0.00079952
     103         -0.491146        2.000000        0.03944398        0.01668535        0.00378331        0.03672230
     104         -0.489479        2.000000        0.04250449        0.01430794        0.00611327        0.03631962
     105         -0.484117        2.000000        0.04687425        0.03492966        0.00129267        0.01439537
     106         -0.480223        2.000000        0.00987380        0.02330678        0.00169587        0.07461527
     107         -0.475068        2.000000        0.01444695        0.05472877        0.00052369        0.03555041
     108         -0.473436        2.000000        0.01414940        0.06573082        0.00172347        0.02596301
     109         -0.461463        2.000000        0.00012728        0.00026666        0.02669234        0.00022506
     110         -0.451890        2.000000        0.00842763        0.03823519        0.00115424        0.02211308
     111         -0.450504        2.000000        0.00686673        0.02676720        0.00075584        0.04373486
     112         -0.449531        2.000000        0.00027870        0.00147533        0.03670705        0.00117147
     113         -0.448000        2.000000        0.00040293        0.00109508        0.03412157        0.00080376
     114         -0.447075        2.000000        0.00622389        0.03613782        0.00149498        0.02803917
     115         -0.442850        2.000000        0.01486471        0.01518114        0.00720896        0.02345360
     116         -0.442532        2.000000        0.01904558        0.02177003        0.00128015        0.02997261
     117         -0.441735        2.000000        0.00528574        0.00629438        0.02407869        0.00632391
     118         -0.440239        2.000000        0.01615786        0.01983556        0.00014063        0.03029265
     119         -0.429103        2.000000        0.00134113        0.03107845        0.00029090        0.02936766
     120         -0.428055        2.000000        0.00066038        0.00263163        0.00217542        0.00140328
     121         -0.426373        2.000000        0.00013615        0.00033497        0.00117439        0.00051168
     122         -0.424737        2.000000        0.01176402        0.03324469        0.00044975        0.01343596
     123         -0.423451        2.000000        0.01282031        0.00836957        0.00037465        0.04106402
     124         -0.422964        2.000000        0.00066043        0.00088314        0.00179571        0.00134395
     125         -0.419751        2.000000        0.00905249        0.01401647        0.00100071        0.01129416
     126         -0.418914        2.000000        0.00798872        0.01156904        0.00142075        0.01259166
     127         -0.418484        2.000000        0.01008929        0.01791037        0.00062623        0.01320762
     128         -0.415893        2.000000        0.01278318        0.02433592        0.00012936        0.01589101
     129         -0.353072        0.000000        0.00044259        0.00006965        0.66855376        0.00024238
     130         -0.351017        0.000000        0.00021088        0.00007815        0.66133413        0.00020735
     131         -0.348450        0.000000        0.00043394        0.00011131        0.66666587        0.00021343
     132         -0.326683        0.000000        0.00046631        0.00008323        0.52695853        0.00013450
     133         -0.320874        0.000000        0.00045696        0.00012609        0.53223967        0.00013271
     134         -0.319116        0.000000        0.00033466        0.00005334        0.52766483        0.00014165
     135         -0.316582        0.000000        0.00022644        0.00013935        0.53350750        0.00010135
     136         -0.315915        0.000000        0.00025421        0.00006651        0.53023172        0.00003885
     137         -0.303532        0.000000        0.00047896        0.00005722        0.61198187        0.00014026
     138         -0.299786        0.000000        0.00055600        0.00011560        0.53351295        0.00009654
     139         -0.294085        0.000000        0.00026930        0.00011405        0.53162788        0.00004918
     140         -0.291397        0.000000        0.00023998        0.00006372        0.53477039        0.00009303
     141         -0.241994        0.000000        0.00044864        0.00009088        0.49026955        0.00005054
     142         -0.237668        0.000000        0.00055938        0.00008615        0.48953711        0.00009434
     143         -0.236920        0.000000        0.00033304        0.00009939        0.49440536        0.00005305
     144         -0.230346        0.000000        0.00018315        0.00004179        0.49249296        0.00008192
     145         -0.229876        0.000000        0.00019041        0.00011704        0.48946602        0.00005836
     146         -0.212904        0.000000        0.00039696        0.00005877        0.50511843        0.00004054
     147         -0.210662        0.000000        0.00028165        0.00004121        0.50430296        0.00006420
     148         -0.206806        0.000000        0.00021232        0.00005510        0.50435589        0.00007052
     149         -0.169689        0.000000        0.00057978        0.00006016        0.49430253        0.00005205
     150         -0.163983        0.000000        0.00042195        0.00004449        0.49300839        0.00004276
     151         -0.162424        0.000000        0.00019627        0.00003247        0.49468978        0.00004497
     152         -0.153522        0.000000        0.00028958        0.00001906        0.49623704        0.00003610
     153         -0.050247        0.000000        0.30316029        0.14132086        0.00040351        0.19027075
     154         -0.035654        0.000000        0.34985338        0.11459533        0.00032909        0.11304829
     155         -0.028317        0.000000        0.27602438        0.20132022        0.00025991        0.07203399
     156         -0.018666        0.000000        0.28395758        0.16575774        0.00020476        0.11967034
     157         -0.007316        0.000000        0.32060206        0.18410649        0.00035303        0.08320611
     158         -0.004250        0.000000        0.37873881        0.10038938        0.00021598        0.09788404
     159         -0.000070        0.000000        0.34312854        0.08162636        0.00010479        0.14502387
     160          0.012507        0.000000        0.32769967        0.13342504        0.00039121        0.11810690
     161          0.017972        0.000000        0.32775399        0.13177131        0.00018780        0.10218074
     162          0.023499        0.000000        0.31970110        0.07679509        0.00020628        0.16687962
     163          0.028890        0.000000        0.36200179        0.06951484        0.00021692        0.13536009
     164          0.042337        0.000000        0.32385774        0.05645485        0.00051860        0.16192885
     165          0.047100        0.000000        0.30866545        0.07718093        0.00032027        0.16213441
     166          0.051114        0.000000        0.32159537        0.08214248        0.00028445        0.15362372
     167          0.055661        0.000000        0.32471891        0.08250324        0.00019654        0.14557105
     168          0.057265        0.000000        0.37806096        0.03850637        0.00093964        0.12900913
     169          0.061665        0.000000        0.31681259        0.04304360        0.00097945        0.18433505
     170          0.067641        0.000000        0.39409570        0.05449258        0.00038392        0.11377788
     171          0.085827        0.000000        0.40632020        0.07808020        0.00161037        0.06180467
     172          0.091530        0.000000        0.37340178        0.05691706        0.00035528        0.13578889
     173          0.103167        0.000000        0.33626739        0.09095411        0.00035734        0.10967971
     174          0.105336        0.000000        0.40075981        0.08439844        0.00048185        0.03394563
     175          0.109521        0.000000        0.30508293        0.19496798        0.00007034        0.03846274
     176          0.126134        0.000000        0.28766068        0.22861707        0.00020519        0.02290381
     177          0.152233        0.000000        0.15317451        0.28463139        0.00005567        0.11205645
     178          0.170232        0.000000        0.18049267        0.11800233        0.00013732        0.24478660
