# Projected DOS for atomic kind N at iteration step i = 0, E(Fermi) =    -0.414094 a.u.
#     MO Eigenvalue [a.u.]      Occupation                 s                py                pz                px
       1         -0.860198        2.000000        0.62171817        0.00615553        0.00000355        0.00604977
       2         -0.857580        2.000000        0.62103584        0.00676117        0.00000387        0.00703338
       3         -0.855287        2.000000        0.61971626        0.00666070        0.00000386        0.00650950
       4         -0.839039        2.000000        0.62497094        0.00722915        0.00000425        0.00881209
       5         -0.837721        2.000000        0.63551666        0.00651173        0.00000633        0.00444186
       6         -0.833239        2.000000        0.63500348        0.00578145        0.00001748        0.00688855
       7         -0.832675        2.000000        0.63528722        0.00524593        0.00000305        0.00614347
       8         -0.815746        2.000000        0.63968935        0.00768013        0.00000235        0.00742021
       9         -0.808051        2.000000        0.53534541        0.02326228        0.00002875        0.03031056
      10         -0.806785        2.000000        0.54877269        0.02460233        0.00000972        0.02265073
      11         -0.806172        2.000000        0.54170191        0.02540147        0.00000887        0.02687186
      12         -0.801866        2.000000        0.54877439        0.02578766        0.00002528        0.02485579
      13         -0.801241        2.000000        0.54503314        0.02407802        0.00002592        0.02671020
      14         -0.800104        2.000000        0.56501371        0.02228574        0.00001878        0.01733278
      15         -0.799255        2.000000        0.55947967        0.02351746        0.00001446        0.01665742
      16         -0.797728        2.000000        0.56636550        0.01505923        0.00002939        0.02247697
      17         -0.797606        2.000000        0.57611516        0.01761831        0.00002820        0.01642505
      18         -0.796829        2.000000        0.58068681        0.01325785        0.00001672        0.01644343
      19         -0.795746        2.000000        0.58445231        0.01095549        0.00004844        0.01567338
      20         -0.795131        2.000000        0.59871657        0.01013138        0.00003539        0.00933714
      21         -0.794248        2.000000        0.59368548        0.01046559        0.00002127        0.00844497
      22         -0.792807        2.000000        0.59899579        0.00893619        0.00002858        0.01082629
      23         -0.789677        2.000000        0.60529269        0.00957830        0.00002623        0.00751154
      24         -0.789126        2.000000        0.59876713        0.01246482        0.00002969        0.00501432
      25         -0.788193        2.000000        0.59842591        0.00843066        0.00001800        0.01088721
      26         -0.787521        2.000000        0.59856104        0.01014051        0.00003032        0.00951736
      27         -0.786736        2.000000        0.59867061        0.01034427        0.00001777        0.01030774
      28         -0.784797        2.000000        0.59245515        0.01008083        0.00001574        0.01245510
      29         -0.782546        2.000000        0.60270078        0.01179629        0.00001186        0.00677957
      30         -0.781537        2.000000        0.61050413        0.00827222        0.00002832        0.00873408
      31         -0.780353        2.000000        0.60997120        0.00677110        0.00001074        0.00996487
      32         -0.775344        2.000000        0.61983651        0.00462376        0.00001420        0.00531433
      33         -0.701585        2.000000        0.01198490        0.29829961        0.00007348        0.19591208
      34         -0.699707        2.000000        0.01185734        0.31452208        0.00010324        0.17752687
      35         -0.697117        2.000000        0.01088011        0.13947526        0.00005759        0.35086176
      36         -0.692562        2.000000        0.01711270        0.30116220        0.00011380        0.18459196
      37         -0.689302        2.000000        0.01707796        0.20616763        0.00011699        0.27540372
      38         -0.688409        2.000000        0.02598245        0.18546058        0.00008234        0.29842208
      39         -0.683702        2.000000        0.04740351        0.33020618        0.00016044        0.14476019
      40         -0.679302        2.000000        0.03899757        0.15921759        0.00019239        0.31665519
      41         -0.674933        2.000000        0.05320347        0.26913982        0.00037697        0.21247607
      42         -0.671294        2.000000        0.05770627        0.27199432        0.00017658        0.20836188
      43         -0.668620        2.000000        0.05594814        0.25074759        0.00012360        0.23141783
      44         -0.662449        2.000000        0.02729955        0.24507705        0.00016182        0.23541501
      45         -0.661190        2.000000        0.02784336        0.31357895        0.00033164        0.18400262
      46         -0.658976        2.000000        0.02041709        0.20873682        0.00022308        0.28837716
      47         -0.650751        2.000000        0.05779496        0.22444211        0.00113856        0.28622590
      48         -0.646853        2.000000        0.05722595        0.26416959        0.00015334        0.24952667
      49         -0.642414        2.000000        0.04603352        0.18426050        0.00075717        0.32845747
      50         -0.641488        2.000000        0.04654919        0.18387329        0.00062736        0.32808093
      51         -0.638402        2.000000        0.03911081        0.26737102        0.00066769        0.24765778
      52         -0.637863        2.000000        0.04005903        0.25254394        0.00079438        0.26083113
      53         -0.631713        2.000000        0.04094057        0.28212957        0.00049742        0.23149262
      54         -0.630794        2.000000        0.04205669        0.20706736        0.00029984        0.30802581
      55         -0.628496        2.000000        0.01637136        0.39473115        0.00053040        0.11306073
      56         -0.626140        2.000000        0.01534524        0.40908912        0.00047093        0.09352253
      57         -0.621391        2.000000        0.01803165        0.27707773        0.00823244        0.22507927
      58         -0.619756        2.000000        0.00042863        0.00501314        0.51381364        0.00485563
      59         -0.615391        2.000000        0.00022447        0.00177723        0.52881185        0.00188561
      60         -0.612462        2.000000        0.00027114        0.00173700        0.52863102        0.00248631
      61         -0.606671        2.000000        0.02097338        0.10979863        0.00197782        0.39587033
      62         -0.605417        2.000000        0.01986271        0.10535321        0.00396384        0.40176942
      63         -0.603022        2.000000        0.00006036        0.00056206        0.51958302        0.00111590
      64         -0.595250        2.000000        0.01838962        0.40950972        0.00101005        0.10565160
      65         -0.594101        2.000000        0.02044144        0.04536876        0.00410712        0.46908949
      66         -0.592447        2.000000        0.02828983        0.27670452        0.00535481        0.24488566
      67         -0.589833        2.000000        0.00359482        0.00647595        0.43792284        0.08891773
      68         -0.588621        2.000000        0.01554836        0.41183281        0.00670901        0.10567771
      69         -0.587561        2.000000        0.01814963        0.02663283        0.10679570        0.38739281
      70         -0.585930        2.000000        0.00073035        0.00096292        0.52184273        0.01391482
      71         -0.581863        2.000000        0.00050586        0.00327899        0.51976406        0.00798327
      72         -0.575437        2.000000        0.00769267        0.34253302        0.00386421        0.18996051
      73         -0.571565        2.000000        0.01857962        0.31783125        0.00199156        0.22088167
      74         -0.568754        2.000000        0.00857522        0.26043797        0.00258052        0.27401135
      75         -0.562992        2.000000        0.01186190        0.42853791        0.00844214        0.12015215
      76         -0.560996        2.000000        0.00052173        0.00957967        0.58558440        0.00688150
      77         -0.560632        2.000000        0.01588174        0.40220108        0.02073271        0.13905906
      78         -0.557661        2.000000        0.00057174        0.00665436        0.48528546        0.00450981
      79         -0.556687        2.000000        0.00033462        0.00568616        0.48636712        0.00345139
      80         -0.555233        2.000000        0.01214564        0.06090602        0.03226151        0.46660123
      81         -0.552526        2.000000        0.00146450        0.01399808        0.45186627        0.03581003
      82         -0.550354        2.000000        0.00054037        0.00245764        0.47606056        0.01465212
      83         -0.549657        2.000000        0.00027920        0.00223197        0.48961138        0.00169059
      84         -0.549061        2.000000        0.01398476        0.17528813        0.02081661        0.37084484
      85         -0.546015        2.000000        0.01544422        0.34282583        0.01201428        0.21442880
      86         -0.532000        2.000000        0.00099011        0.00222189        0.56337411        0.00200561
      87         -0.528484        2.000000        0.00069052        0.00171123        0.54862435        0.00208434
      88         -0.527373        2.000000        0.00256819        0.00704857        0.53442848        0.00479658
      89         -0.521384        2.000000        0.14633309        0.38953055        0.01093605        0.35728944
      90         -0.516960        2.000000        0.12707287        0.27860485        0.01377140        0.46404193
      91         -0.515244        2.000000        0.11893038        0.44912474        0.01506207        0.29593346
      92         -0.514978        2.000000        0.10477383        0.35862706        0.11625162        0.25573974
      93         -0.513520        2.000000        0.00677164        0.02009882        0.57801052        0.02148576
      94         -0.512316        2.000000        0.02038227        0.07783376        0.51376603        0.05462371
      95         -0.505341        2.000000        0.00121378        0.00264162        0.61246831        0.00251510
      96         -0.502749        2.000000        0.00311483        0.00855343        0.52934713        0.00626528
      97         -0.501623        2.000000        0.00686335        0.01642313        0.52030882        0.02073029
      98         -0.498566        2.000000        0.00608734        0.01528979        0.49859214        0.02139031
      99         -0.497809        2.000000        0.01927565        0.04526219        0.44977401        0.06237366
     100         -0.497550        2.000000        0.10558025        0.30815453        0.08454979        0.34272269
     101         -0.494806        2.000000        0.11369625        0.37852839        0.04098601        0.34078856
     102         -0.493618        2.000000        0.00339784        0.00968371        0.50891954        0.01072248
     103         -0.490084        2.000000        0.13072679        0.34051352        0.00625355        0.42447322
     104         -0.488381        2.000000        0.13210651        0.35295034        0.01004310        0.40370692
     105         -0.483486        2.000000        0.13204440        0.42416071        0.00447305        0.34170803
     106         -0.479092        2.000000        0.11446518        0.53492943        0.00360393        0.23864156
     107         -0.474073        2.000000        0.11163086        0.31065931        0.00228312        0.47118591
     108         -0.472430        2.000000        0.11874839        0.25608876        0.00358891        0.51523595
     109         -0.461754        2.000000        0.00112356        0.00345377        0.96284643        0.00382741
     110         -0.451014        2.000000        0.06724907        0.38203164        0.13631533        0.34676058
     111         -0.449934        2.000000        0.01082688        0.06970592        0.82356157        0.05234306
     112         -0.449550        2.000000        0.09351526        0.25959210        0.03925044        0.53075898
     113         -0.448365        2.000000        0.00344845        0.02233057        0.91464236        0.02048178
     114         -0.445692        2.000000        0.07498083        0.44223240        0.01918438        0.39101792
     115         -0.442563        2.000000        0.01763677        0.11046409        0.73691248        0.09263983
     116         -0.441678        2.000000        0.07124411        0.34979349        0.03300142        0.47595034
     117         -0.440849        2.000000        0.06024433        0.50056826        0.19912109        0.17731997
     118         -0.438801        2.000000        0.06339475        0.40815679        0.00649485        0.45585140
     119         -0.428209        2.000000        0.02290279        0.13095041        0.70622987        0.11955280
     120         -0.427845        2.000000        0.05430102        0.37120952        0.27085871        0.25622403
     121         -0.425916        2.000000        0.00226388        0.01494374        0.96168218        0.01774842
     122         -0.423410        2.000000        0.05265442        0.53529779        0.07140865        0.28377256
     123         -0.422684        2.000000        0.02556700        0.09811525        0.52565423        0.31955013
     124         -0.422404        2.000000        0.02938399        0.08896851        0.40886548        0.43516235
     125         -0.419029        2.000000        0.01160284        0.10248427        0.79386630        0.07781681
     126         -0.417578        2.000000        0.04424611        0.32355257        0.12028853        0.46388268
     127         -0.416945        2.000000        0.04358833        0.49567329        0.08103024        0.33129272
     128         -0.414094        2.000000        0.04468063        0.56784806        0.02729066        0.30820755
     129         -0.353454        0.000000        0.00006202        0.00064764        0.33261739        0.00060242
     130         -0.350986        0.000000        0.00007189        0.00035695        0.34158866        0.00035777
     131         -0.348573        0.000000        0.00007500        0.00032625        0.33485485        0.00070081
     132         -0.327331        0.000000        0.00008215        0.00027376        0.47332458        0.00056025
     133         -0.321259        0.000000        0.00012650        0.00029184        0.46769154        0.00020475
     134         -0.319503        0.000000        0.00009779        0.00043760        0.47192700        0.00055613
     135         -0.316608        0.000000        0.00010151        0.00031210        0.46741109        0.00030684
     136         -0.316036        0.000000        0.00011888        0.00042414        0.46910408        0.00018477
     137         -0.302630        0.000000        0.00008259        0.00012684        0.38713277        0.00023363
     138         -0.299743        0.000000        0.00017527        0.00026051        0.46469893        0.00027284
     139         -0.293487        0.000000        0.00008124        0.00016230        0.46761689        0.00014106
     140         -0.290677        0.000000        0.00005837        0.00014553        0.46455442        0.00020256
     141         -0.242783        0.000000        0.00010494        0.00022826        0.50862813        0.00017361
     142         -0.238369        0.000000        0.00009253        0.00007603        0.50897284        0.00046352
     143         -0.237297        0.000000        0.00011770        0.00022670        0.50439511        0.00017195
     144         -0.230426        0.000000        0.00007998        0.00014463        0.50736368        0.00012572
     145         -0.229724        0.000000        0.00010550        0.00012086        0.50888709        0.00018962
     146         -0.212187        0.000000        0.00008250        0.00014604        0.49364485        0.00012732
     147         -0.209886        0.000000        0.00006815        0.00011564        0.49419632        0.00018323
     148         -0.205982        0.000000        0.00003821        0.00010644        0.49461156        0.00016960
     149         -0.170099        0.000000        0.00007546        0.00010511        0.50402545        0.00011814
     150         -0.163398        0.000000        0.00007446        0.00007355        0.50582574        0.00007103
     151         -0.162410        0.000000        0.00004772        0.00012208        0.50411143        0.00006469
     152         -0.152855        0.000000        0.00002979        0.00007979        0.50289683        0.00004682
     153         -0.050133        0.000000        0.23652839        0.01822232        0.00029406        0.11522572
     154         -0.034599        0.000000        0.14083645        0.16620400        0.00039725        0.12241258
     155         -0.027434        0.000000        0.07374185        0.29843007        0.00029295        0.07755592
     156         -0.018649        0.000000        0.10224958        0.18566499        0.00029645        0.14567149
     157         -0.005471        0.000000        0.10650936        0.18475641        0.00038635        0.14776147
     158          0.002921        0.000000        0.20508430        0.09142126        0.00030300        0.11991798
     159          0.006471        0.000000        0.22351006        0.05781648        0.00036967        0.12876048
     160          0.017379        0.000000        0.14396065        0.10913657        0.00014561        0.17202789
     161          0.022624        0.000000        0.14233950        0.12088553        0.00014043        0.16533392
     162          0.027041        0.000000        0.16982560        0.15670961        0.00020313        0.10540692
     163          0.036369        0.000000        0.13197275        0.12179401        0.00013006        0.19075653
     164          0.045635        0.000000        0.10028632        0.11858525        0.00011082        0.21247148
     165          0.048554        0.000000        0.08772617        0.12022196        0.00006631        0.23752602
     166          0.054181        0.000000        0.07398882        0.12301616        0.00014957        0.25686411
     167          0.056958        0.000000        0.05112299        0.11948278        0.00018139        0.28734090
     168          0.058823        0.000000        0.09445101        0.14770596        0.00011098        0.21256708
     169          0.067064        0.000000        0.08572881        0.17508617        0.00010035        0.20359162
     170          0.068163        0.000000        0.15759776        0.12587555        0.00009728        0.15093755
     171          0.089944        0.000000        0.10516354        0.15652698        0.00014320        0.19094632
     172          0.097439        0.000000        0.12677337        0.13463332        0.00015955        0.17167819
     173          0.106278        0.000000        0.03509387        0.25272613        0.00013630        0.17409952
     174          0.108575        0.000000        0.04156700        0.25688915        0.00014316        0.17975872
     175          0.110394        0.000000        0.03284713        0.30836166        0.00010215        0.12610429
     176          0.132397        0.000000        0.02403920        0.31190378        0.00030331        0.12310822
     177          0.147891        0.000000        0.09263748        0.13123703        0.00009174        0.22155800
     178          0.172675        0.000000        0.03355614        0.20942754        0.00012127        0.21295936
