# Projected DOS for atomic kind N at iteration step i = 0, E(Fermi) =    -0.418704 a.u.
#     MO Eigenvalue [a.u.]      Occupation                 s                py                pz                px
       1         -0.860189        2.000000        0.62181649        0.00604304        0.00000065        0.00602059
       2         -0.858269        2.000000        0.62184597        0.00637878        0.00000082        0.00654645
       3         -0.856113        2.000000        0.62097967        0.00638741        0.00000075        0.00625020
       4         -0.847005        2.000000        0.62550149        0.00702393        0.00000139        0.00706098
       5         -0.829285        2.000000        0.63869270        0.00636353        0.00000102        0.00616049
       6         -0.825951        2.000000        0.63907450        0.00641112        0.00000328        0.00719505
       7         -0.825660        2.000000        0.63959555        0.00630840        0.00000077        0.00652733
       8         -0.815129        2.000000        0.64080463        0.00762516        0.00000057        0.00762484
       9         -0.806217        2.000000        0.53821503        0.02171563        0.00000578        0.03185160
      10         -0.805083        2.000000        0.54008138        0.02432152        0.00000450        0.02738227
      11         -0.804339        2.000000        0.54612093        0.02926345        0.00000213        0.02167421
      12         -0.802062        2.000000        0.54492292        0.02470719        0.00000555        0.02725319
      13         -0.801365        2.000000        0.53833767        0.03183045        0.00000447        0.02274978
      14         -0.800504        2.000000        0.55580766        0.03160348        0.00000494        0.01317131
      15         -0.799858        2.000000        0.54305159        0.02126148        0.00000326        0.02920901
      16         -0.799029        2.000000        0.54837544        0.01808973        0.00000553        0.03091504
      17         -0.796720        2.000000        0.58898876        0.01140404        0.00000376        0.01447736
      18         -0.796337        2.000000        0.59823565        0.00985179        0.00000347        0.01149321
      19         -0.795803        2.000000        0.59216135        0.01065043        0.00001054        0.01076137
      20         -0.795210        2.000000        0.59823154        0.00924518        0.00000743        0.01021058
      21         -0.794263        2.000000        0.59863765        0.01108556        0.00000538        0.00746148
      22         -0.793201        2.000000        0.59787940        0.00829446        0.00000443        0.00967281
      23         -0.791162        2.000000        0.60268617        0.00966877        0.00000360        0.00789315
      24         -0.790216        2.000000        0.59509842        0.01293828        0.00000572        0.00539455
      25         -0.789971        2.000000        0.59490866        0.00805330        0.00000553        0.01087506
      26         -0.788833        2.000000        0.59751899        0.00917714        0.00000428        0.01142663
      27         -0.787454        2.000000        0.59945481        0.00793900        0.00000423        0.00963019
      28         -0.787085        2.000000        0.59176859        0.01392187        0.00000329        0.00599215
      29         -0.784832        2.000000        0.59955537        0.00835095        0.00000385        0.01071631
      30         -0.783623        2.000000        0.61099562        0.00615599        0.00000582        0.00824710
      31         -0.782369        2.000000        0.61041807        0.00596673        0.00000189        0.00902178
      32         -0.777651        2.000000        0.61964898        0.00410398        0.00000338        0.00459683
      33         -0.698706        2.000000        0.01371522        0.28283159        0.00001888        0.21093062
      34         -0.697082        2.000000        0.01411659        0.30592575        0.00002095        0.18696961
      35         -0.695082        2.000000        0.00906673        0.22727464        0.00001595        0.26371518
      36         -0.691027        2.000000        0.01866745        0.24268485        0.00001999        0.24007049
      37         -0.688648        2.000000        0.01627933        0.18807196        0.00002229        0.29329994
      38         -0.688277        2.000000        0.02473159        0.18240725        0.00001649        0.29988894
      39         -0.682195        2.000000        0.04669390        0.34767370        0.00003830        0.12589116
      40         -0.679801        2.000000        0.04082268        0.13728486        0.00004044        0.33668098
      41         -0.674938        2.000000        0.05722939        0.27120037        0.00007889        0.21081443
      42         -0.672186        2.000000        0.06657882        0.26638456        0.00003667        0.21399655
      43         -0.671030        2.000000        0.06410245        0.25407000        0.00002294        0.22750974
      44         -0.662117        2.000000        0.02680087        0.24489828        0.00003293        0.23343520
      45         -0.657717        2.000000        0.01965120        0.31266732        0.00005923        0.18701325
      46         -0.656844        2.000000        0.01595001        0.20692900        0.00005152        0.29378621
      47         -0.650048        2.000000        0.05753100        0.24484316        0.00026134        0.26829581
      48         -0.647574        2.000000        0.05658642        0.27487963        0.00003426        0.24073932
      49         -0.643742        2.000000        0.05905091        0.12583846        0.00004999        0.38611520
      50         -0.642586        2.000000        0.03160525        0.21556973        0.00021314        0.30260136
      51         -0.638404        2.000000        0.04126957        0.27034544        0.00018670        0.24313064
      52         -0.637952        2.000000        0.04306291        0.24538627        0.00019327        0.26757067
      53         -0.634381        2.000000        0.03749823        0.25745578        0.00006492        0.25803766
      54         -0.634067        2.000000        0.04211181        0.21884864        0.00003742        0.29820158
      55         -0.626517        2.000000        0.01372338        0.42627330        0.00018885        0.07522331
      56         -0.624981        2.000000        0.01413351        0.42294504        0.00014084        0.07645579
      57         -0.621499        2.000000        0.01756821        0.26179405        0.00070554        0.24008975
      58         -0.619000        2.000000        0.00005330        0.00051969        0.52424112        0.00054460
      59         -0.615317        2.000000        0.00005289        0.00040605        0.53207656        0.00035567
      60         -0.613055        2.000000        0.00005456        0.00039521        0.53159589        0.00038623
      61         -0.607388        2.000000        0.00001467        0.00006729        0.52497891        0.00009625
      62         -0.604965        2.000000        0.02053458        0.11229781        0.00029300        0.39753238
      63         -0.603860        2.000000        0.02026247        0.11379851        0.00049864        0.39714724
      64         -0.592785        2.000000        0.02139078        0.42061368        0.00024119        0.08707590
      65         -0.591310        2.000000        0.02179689        0.02216527        0.00042671        0.49769147
      66         -0.589476        2.000000        0.02381496        0.31088710        0.00076610        0.22211872
      67         -0.588039        2.000000        0.01657057        0.40083148        0.00046994        0.12850039
      68         -0.587619        2.000000        0.02131683        0.03852974        0.00878837        0.47434391
      69         -0.584757        2.000000        0.00045006        0.00105821        0.52039549        0.00689040
      70         -0.582438        2.000000        0.00004902        0.00015798        0.52876455        0.00066779
      71         -0.579739        2.000000        0.00008645        0.00050952        0.52226114        0.00119480
      72         -0.572490        2.000000        0.00545493        0.31663834        0.00079445        0.22075063
      73         -0.569393        2.000000        0.01711554        0.32712648        0.00049866        0.21391568
      74         -0.568434        2.000000        0.01054457        0.28870499        0.00055701        0.24999270
      75         -0.560338        2.000000        0.01463827        0.42838355        0.00293826        0.13061269
      76         -0.558755        2.000000        0.00378393        0.09385853        0.46672855        0.03353751
      77         -0.558594        2.000000        0.01351918        0.32004276        0.14322581        0.11165839
      78         -0.556916        2.000000        0.00024380        0.00313078        0.49510878        0.00163810
      79         -0.555976        2.000000        0.00008740        0.00232168        0.49024859        0.00089451
      80         -0.553751        2.000000        0.00063123        0.00423620        0.47268688        0.02014481
      81         -0.552181        2.000000        0.01306294        0.04513078        0.03934611        0.47566815
      82         -0.551606        2.000000        0.00006915        0.00048012        0.49001972        0.00093939
      83         -0.551588        2.000000        0.00063150        0.00270114        0.46842393        0.02135553
      84         -0.546822        2.000000        0.01499699        0.20454162        0.00113061        0.36586195
      85         -0.545366        2.000000        0.01602834        0.34355655        0.00174331        0.22678804
      86         -0.530920        2.000000        0.00033162        0.00078665        0.56778097        0.00062511
      87         -0.528174        2.000000        0.00017853        0.00047333        0.55587314        0.00052953
      88         -0.527274        2.000000        0.00146627        0.00366819        0.54468541        0.00302552
      89         -0.523538        2.000000        0.15057545        0.38761795        0.00558175        0.36418674
      90         -0.518718        2.000000        0.13103754        0.27294485        0.00149132        0.48319687
      91         -0.517156        2.000000        0.12590536        0.45162522        0.00057835        0.30547135
      92         -0.516583        2.000000        0.12565892        0.43715087        0.00839250        0.30794883
      93         -0.513255        2.000000        0.00073704        0.00215947        0.61115178        0.00188747
      94         -0.512459        2.000000        0.00121036        0.00453097        0.61586993        0.00328852
      95         -0.507756        2.000000        0.00028351        0.00061963        0.62308213        0.00062928
      96         -0.502667        2.000000        0.00118354        0.00335988        0.53622758        0.00238089
      97         -0.501887        2.000000        0.00216220        0.00527336        0.53163755        0.00656514
      98         -0.498784        2.000000        0.08512108        0.22919519        0.16731660        0.29722723
      99         -0.498722        2.000000        0.04551039        0.15816413        0.33573486        0.11904369
     100         -0.498131        2.000000        0.02732713        0.07626874        0.41297049        0.08820728
     101         -0.497407        2.000000        0.09059482        0.29938735        0.13924250        0.26921090
     102         -0.495330        2.000000        0.00046574        0.00118591        0.52167091        0.00123328
     103         -0.492006        2.000000        0.13621536        0.35240490        0.00165438        0.41490760
     104         -0.490780        2.000000        0.13539341        0.35095683        0.00325801        0.41354785
     105         -0.484392        2.000000        0.13657147        0.42801836        0.00079268        0.33738112
     106         -0.481309        2.000000        0.11307467        0.58078291        0.00083088        0.19462145
     107         -0.476130        2.000000        0.11616579        0.26817525        0.00053634        0.50781784
     108         -0.474796        2.000000        0.11905926        0.24999581        0.00079795        0.52123487
     109         -0.461247        2.000000        0.00026609        0.00090066        0.97350620        0.00084687
     110         -0.451888        2.000000        0.08073060        0.47171094        0.00468823        0.37160671
     111         -0.451059        2.000000        0.09764331        0.23879400        0.00238207        0.58238929
     112         -0.448814        2.000000        0.06601558        0.36769534        0.17056406        0.32899703
     113         -0.448325        2.000000        0.01395355        0.07215895        0.79390111        0.07783914
     114         -0.447253        2.000000        0.00056886        0.00336446        0.95905477        0.00331934
     115         -0.443746        2.000000        0.06669800        0.56787562        0.13193317        0.16895557
     116         -0.443253        2.000000        0.07058167        0.34408510        0.10873005        0.40853393
     117         -0.442885        2.000000        0.01826583        0.10380529        0.73133768        0.10580290
     118         -0.441837        2.000000        0.06984067        0.39808089        0.00154096        0.46175752
     119         -0.430291        2.000000        0.08338865        0.43876784        0.00776736        0.40507222
     120         -0.427628        2.000000        0.00208356        0.01968544        0.96444383        0.00995272
     121         -0.426336        2.000000        0.00055016        0.00367233        0.99074154        0.00368523
     122         -0.425345        2.000000        0.05398418        0.62843932        0.03559398        0.22211387
     123         -0.424353        2.000000        0.05321604        0.12110735        0.00258602        0.75894861
     124         -0.423895        2.000000        0.00176900        0.01436094        0.97033446        0.01055227
     125         -0.421136        2.000000        0.05107493        0.48800226        0.07402273        0.33655859
     126         -0.420478        2.000000        0.05260531        0.41402725        0.00907921        0.46901827
     127         -0.419893        2.000000        0.00375650        0.04313484        0.92298876        0.02516266
     128         -0.418704        2.000000        0.05231947        0.49788339        0.01323134        0.38203993
     129         -0.351497        0.000000        0.00001196        0.00013251        0.32691522        0.00012528
     130         -0.350116        0.000000        0.00001620        0.00005180        0.33144287        0.00006006
     131         -0.348146        0.000000        0.00001655        0.00006831        0.32814188        0.00013099
     132         -0.324788        0.000000        0.00001687        0.00005815        0.47079413        0.00010733
     133         -0.320550        0.000000        0.00002427        0.00005426        0.46532679        0.00004198
     134         -0.319158        0.000000        0.00002195        0.00009064        0.47073919        0.00010889
     135         -0.317402        0.000000        0.00001926        0.00006153        0.46648004        0.00005574
     136         -0.316832        0.000000        0.00002407        0.00009817        0.47381553        0.00004245
     137         -0.303952        0.000000        0.00001825        0.00002572        0.38324254        0.00004590
     138         -0.299878        0.000000        0.00003478        0.00005702        0.46622815        0.00005769
     139         -0.295417        0.000000        0.00001843        0.00003814        0.46911315        0.00003026
     140         -0.293656        0.000000        0.00001156        0.00003309        0.46601417        0.00004350
     141         -0.240257        0.000000        0.00002339        0.00005200        0.50907232        0.00003272
     142         -0.237062        0.000000        0.00002073        0.00001494        0.50870041        0.00007776
     143         -0.236944        0.000000        0.00002184        0.00004984        0.50697398        0.00004388
     144         -0.231921        0.000000        0.00001131        0.00001363        0.50876990        0.00003558
     145         -0.231677        0.000000        0.00002664        0.00004334        0.50990393        0.00002915
     146         -0.213003        0.000000        0.00001636        0.00003250        0.49442448        0.00002422
     147         -0.211481        0.000000        0.00001470        0.00002275        0.49559399        0.00004013
     148         -0.208462        0.000000        0.00000832        0.00002319        0.49547274        0.00003398
     149         -0.168847        0.000000        0.00001378        0.00002288        0.50563521        0.00002241
     150         -0.165143        0.000000        0.00001654        0.00001605        0.50660468        0.00001383
     151         -0.163817        0.000000        0.00001048        0.00002293        0.50575001        0.00001059
     152         -0.154818        0.000000        0.00000600        0.00001739        0.50376015        0.00000832
     153         -0.044986        0.000000        0.28469510        0.01437005        0.00006008        0.05949681
     154         -0.033420        0.000000        0.18610840        0.12271399        0.00007728        0.10045689
     155         -0.025198        0.000000        0.08889463        0.25085274        0.00004858        0.10659258
     156         -0.015108        0.000000        0.13682463        0.18369228        0.00006037        0.10098574
     157         -0.011892        0.000000        0.21375724        0.10115953        0.00005332        0.08843988
     158         -0.007368        0.000000        0.17639817        0.14713776        0.00010269        0.09048966
     159         -0.001672        0.000000        0.10283143        0.06261267        0.00004919        0.27743844
     160          0.004859        0.000000        0.10572957        0.12139099        0.00002377        0.20907120
     161          0.010071        0.000000        0.13677329        0.21032641        0.00004092        0.08482013
     162          0.015396        0.000000        0.11636513        0.19180372        0.00002967        0.13461552
     163          0.028100        0.000000        0.06363371        0.10265479        0.00002284        0.29417515
     164          0.035034        0.000000        0.04480300        0.24622445        0.00002968        0.17677799
     165          0.044559        0.000000        0.15161749        0.11437610        0.00002826        0.15884073
     166          0.059409        0.000000        0.11474430        0.11679997        0.00002088        0.20140738
     167          0.064443        0.000000        0.07695803        0.10052321        0.00001291        0.26800834
     168          0.065580        0.000000        0.10001502        0.12785388        0.00002581        0.21714350
     169          0.070032        0.000000        0.12205434        0.12251595        0.00003381        0.19129285
     170          0.073273        0.000000        0.06964325        0.10930563        0.00002627        0.27857585
     171          0.084707        0.000000        0.08970492        0.16953794        0.00003764        0.19227762
     172          0.088537        0.000000        0.11342428        0.12500237        0.00002932        0.20044616
     173          0.099255        0.000000        0.03136458        0.24074549        0.00003716        0.19306678
     174          0.101702        0.000000        0.03026301        0.28524881        0.00004132        0.15997158
     175          0.105335        0.000000        0.02473365        0.32933766        0.00001528        0.10917885
     176          0.115342        0.000000        0.02261291        0.32210496        0.00005466        0.11883644
     177          0.165229        0.000000        0.05750735        0.17134780        0.00001311        0.22821477
     178          0.172991        0.000000        0.02550234        0.23250555        0.00005560        0.20382645
