# Projected DOS for atomic kind C at iteration step i = 0, E(Fermi) =    -0.414094 a.u.
#     MO Eigenvalue [a.u.]      Occupation                 s                py                pz                px
       1         -0.860198        2.000000        0.16023961        0.11075800        0.00014032        0.09493506
       2         -0.857580        2.000000        0.16459902        0.10318160        0.00014479        0.09724033
       3         -0.855287        2.000000        0.16256047        0.10799411        0.00004235        0.09651276
       4         -0.839039        2.000000        0.15875103        0.09987887        0.00005444        0.10029923
       5         -0.837721        2.000000        0.17386667        0.09113566        0.00009454        0.08842655
       6         -0.833239        2.000000        0.17325865        0.09414721        0.00008670        0.08481647
       7         -0.832675        2.000000        0.16731301        0.09612474        0.00003988        0.08984270
       8         -0.815746        2.000000        0.19789199        0.06992197        0.00004967        0.07734433
       9         -0.808051        2.000000        0.22131164        0.09563306        0.00022607        0.09388222
      10         -0.806785        2.000000        0.18648400        0.08866270        0.00008356        0.12873429
      11         -0.806172        2.000000        0.24297506        0.08931309        0.00005464        0.07367311
      12         -0.801866        2.000000        0.22996799        0.10251627        0.00009531        0.06797731
      13         -0.801241        2.000000        0.21872324        0.07359071        0.00016810        0.11167067
      14         -0.800104        2.000000        0.20508535        0.09780566        0.00011974        0.09233825
      15         -0.799255        2.000000        0.19270831        0.13467542        0.00007169        0.07287556
      16         -0.797728        2.000000        0.16970657        0.09282470        0.00008026        0.13345737
      17         -0.797606        2.000000        0.20280627        0.08513990        0.00015917        0.10170793
      18         -0.796829        2.000000        0.16033416        0.12697937        0.00014568        0.10213596
      19         -0.795746        2.000000        0.16546449        0.13375599        0.00023295        0.08941695
      20         -0.795131        2.000000        0.16788629        0.07293313        0.00019857        0.14076154
      21         -0.794248        2.000000        0.10782063        0.13176505        0.00011245        0.14768455
      22         -0.792807        2.000000        0.18007909        0.11115115        0.00017118        0.08981174
      23         -0.789677        2.000000        0.14199666        0.10752350        0.00016541        0.12790568
      24         -0.789126        2.000000        0.12533065        0.08317097        0.00028641        0.17493601
      25         -0.788193        2.000000        0.11695577        0.15657960        0.00010056        0.10860229
      26         -0.787521        2.000000        0.06403068        0.13229563        0.00007632        0.18534814
      27         -0.786736        2.000000        0.10709891        0.14974743        0.00007963        0.12373364
      28         -0.784797        2.000000        0.10756979        0.15863978        0.00007330        0.11871030
      29         -0.782546        2.000000        0.10734229        0.14038289        0.00006901        0.13091731
      30         -0.781537        2.000000        0.06409106        0.16002814        0.00015885        0.14818320
      31         -0.780353        2.000000        0.03111341        0.16714715        0.00005642        0.17496511
      32         -0.775344        2.000000        0.01579481        0.17428394        0.00007027        0.18006218
      33         -0.701585        2.000000        0.38266779        0.05894167        0.00012957        0.05199090
      34         -0.699707        2.000000        0.38166489        0.06574023        0.00007940        0.04850596
      35         -0.697117        2.000000        0.38592882        0.05132942        0.00017125        0.06129580
      36         -0.692562        2.000000        0.38642304        0.05607224        0.00008967        0.05443439
      37         -0.689302        2.000000        0.39349042        0.06345543        0.00010111        0.04418673
      38         -0.688409        2.000000        0.36672804        0.03433695        0.00009034        0.08889723
      39         -0.683702        2.000000        0.33889776        0.07223227        0.00011701        0.06622264
      40         -0.679302        2.000000        0.34642820        0.06175300        0.00006606        0.07669001
      41         -0.674933        2.000000        0.31796211        0.06120183        0.00022874        0.08541100
      42         -0.671294        2.000000        0.29167515        0.10354184        0.00013035        0.06641362
      43         -0.668620        2.000000        0.29350701        0.08446326        0.00012130        0.08367126
      44         -0.662449        2.000000        0.31614645        0.08888958        0.00016411        0.08684643
      45         -0.661190        2.000000        0.17727127        0.16530045        0.00019760        0.13147409
      46         -0.658976        2.000000        0.18155945        0.13825666        0.00024286        0.16218688
      47         -0.650751        2.000000        0.09279890        0.14796943        0.00057467        0.18905547
      48         -0.646853        2.000000        0.08546474        0.16207254        0.00022478        0.18116239
      49         -0.642414        2.000000        0.07517442        0.19163224        0.00052866        0.17315602
      50         -0.641488        2.000000        0.09116235        0.18079090        0.00054427        0.16837173
      51         -0.638402        2.000000        0.06508039        0.25770298        0.00051657        0.12189275
      52         -0.637863        2.000000        0.07340812        0.19135437        0.00059650        0.18041253
      53         -0.631713        2.000000        0.07041450        0.25196148        0.00051275        0.12205107
      54         -0.630794        2.000000        0.06786663        0.14027213        0.00029611        0.23411542
      55         -0.628496        2.000000        0.10080032        0.20928880        0.00045179        0.16476546
      56         -0.626140        2.000000        0.12153062        0.21480996        0.00026385        0.14496775
      57         -0.621391        2.000000        0.06599367        0.19911905        0.00725546        0.19921073
      58         -0.619756        2.000000        0.00180607        0.00309185        0.46693056        0.00406048
      59         -0.615391        2.000000        0.00049333        0.00071340        0.46488783        0.00120626
      60         -0.612462        2.000000        0.00084404        0.00111743        0.46290432        0.00200873
      61         -0.606671        2.000000        0.09819114        0.09312295        0.00207690        0.27798885
      62         -0.605417        2.000000        0.09134963        0.08645308        0.00326855        0.28797955
      63         -0.603022        2.000000        0.00031921        0.00069889        0.47689108        0.00076947
      64         -0.595250        2.000000        0.09672801        0.24897058        0.00094254        0.11879787
      65         -0.594101        2.000000        0.09911110        0.06097537        0.00397336        0.29693336
      66         -0.592447        2.000000        0.09488129        0.28723350        0.00473006        0.05792034
      67         -0.589833        2.000000        0.01870535        0.00886301        0.37995303        0.05556728
      68         -0.588621        2.000000        0.08416796        0.23669627        0.00575239        0.13361549
      69         -0.587561        2.000000        0.09002441        0.03831746        0.09283385        0.23985331
      70         -0.585930        2.000000        0.00363899        0.00149438        0.44887082        0.00854498
      71         -0.581863        2.000000        0.00238115        0.00210418        0.45798091        0.00600157
      72         -0.575437        2.000000        0.02811693        0.23409063        0.00352550        0.19021652
      73         -0.571565        2.000000        0.05101949        0.22985378        0.00173372        0.15810892
      74         -0.568754        2.000000        0.02414247        0.21373795        0.00252986        0.21398466
      75         -0.562992        2.000000        0.02066259        0.30101521        0.00853867        0.10078944
      76         -0.560996        2.000000        0.00087823        0.00670971        0.38539457        0.00445019
      77         -0.560632        2.000000        0.02135747        0.31562160        0.01468207        0.07046428
      78         -0.557661        2.000000        0.00089146        0.00550267        0.49349700        0.00308750
      79         -0.556687        2.000000        0.00100303        0.00445012        0.49629067        0.00241689
      80         -0.555233        2.000000        0.00879178        0.02508381        0.03324171        0.36096832
      81         -0.552526        2.000000        0.00109043        0.00948716        0.46041173        0.02587179
      82         -0.550354        2.000000        0.00057791        0.00087406        0.49332850        0.01150883
      83         -0.549657        2.000000        0.00044275        0.00181662        0.50280013        0.00112737
      84         -0.549061        2.000000        0.01446580        0.09705281        0.02091748        0.28662957
      85         -0.546015        2.000000        0.01664654        0.27663546        0.01113426        0.11087061
      86         -0.532000        2.000000        0.00112192        0.00026491        0.42917714        0.00084430
      87         -0.528484        2.000000        0.00041823        0.00047021        0.44549600        0.00050512
      88         -0.527373        2.000000        0.00210974        0.00149679        0.44679868        0.00075297
      89         -0.521384        2.000000        0.05742663        0.01355652        0.01000635        0.01492138
      90         -0.516960        2.000000        0.02313630        0.07267888        0.00881157        0.01188220
      91         -0.515244        2.000000        0.01731422        0.03503867        0.00810997        0.06048648
      92         -0.514978        2.000000        0.01498889        0.02831224        0.06939914        0.05190748
      93         -0.513520        2.000000        0.00158527        0.00264042        0.36685731        0.00255026
      94         -0.512316        2.000000        0.00285116        0.00501327        0.31303834        0.01249145
      95         -0.505341        2.000000        0.00055886        0.00015752        0.37970984        0.00073497
      96         -0.502749        2.000000        0.00108434        0.00064636        0.44947532        0.00151331
      97         -0.501623        2.000000        0.00102473        0.00300244        0.42937631        0.00227092
      98         -0.498566        2.000000        0.00093921        0.00355285        0.45306377        0.00108458
      99         -0.497809        2.000000        0.00328717        0.01047889        0.40742357        0.00212486
     100         -0.497550        2.000000        0.00834452        0.04139872        0.07202916        0.03722034
     101         -0.494806        2.000000        0.01431288        0.03135885        0.03925297        0.04107608
     102         -0.493618        2.000000        0.00045917        0.00100720        0.46399414        0.00181592
     103         -0.490084        2.000000        0.03700289        0.01751963        0.00572488        0.03778551
     104         -0.488381        2.000000        0.04140992        0.01416522        0.00925441        0.03636357
     105         -0.483486        2.000000        0.04442896        0.03373710        0.00262975        0.01681800
     106         -0.479092        2.000000        0.01085096        0.02583215        0.00279850        0.06887830
     107         -0.474073        2.000000        0.01446432        0.05090682        0.00083900        0.03803066
     108         -0.472430        2.000000        0.01420767        0.06348293        0.00309386        0.02555353
     109         -0.461754        2.000000        0.00021914        0.00044625        0.02771862        0.00036483
     110         -0.451014        2.000000        0.00737964        0.03270488        0.00678931        0.02076954
     111         -0.449934        2.000000        0.00106207        0.00529329        0.03367894        0.00352827
     112         -0.449550        2.000000        0.00682152        0.02690922        0.00209413        0.04105834
     113         -0.448365        2.000000        0.00071939        0.00164805        0.03565328        0.00107613
     114         -0.445692        2.000000        0.00636288        0.03607620        0.00097405        0.02917133
     115         -0.442563        2.000000        0.00444682        0.00528927        0.02503632        0.00757443
     116         -0.441678        2.000000        0.01838064        0.01737196        0.00172111        0.03253693
     117         -0.440849        2.000000        0.01537645        0.02052661        0.00834998        0.01849330
     118         -0.438801        2.000000        0.01553390        0.01966368        0.00024913        0.03065550
     119         -0.428209        2.000000        0.00044714        0.00895261        0.00151197        0.00945242
     120         -0.427845        2.000000        0.00231474        0.02474268        0.00095754        0.01939175
     121         -0.425916        2.000000        0.00021480        0.00070897        0.00138061        0.00105740
     122         -0.423410        2.000000        0.01061285        0.03117976        0.00084682        0.01422715
     123         -0.422684        2.000000        0.00631172        0.00564653        0.00146536        0.01768979
     124         -0.422404        2.000000        0.00758736        0.00482661        0.00114238        0.02406334
     125         -0.419029        2.000000        0.00304381        0.00493286        0.00240958        0.00384354
     126         -0.417578        2.000000        0.01213146        0.01702078        0.00111105        0.01776682
     127         -0.416945        2.000000        0.01176549        0.02076120        0.00042884        0.01545989
     128         -0.414094        2.000000        0.01238029        0.02420493        0.00020219        0.01518569
     129         -0.353454        0.000000        0.00077128        0.00013198        0.66469662        0.00047065
     130         -0.350986        0.000000        0.00036570        0.00014787        0.65670835        0.00040280
     131         -0.348573        0.000000        0.00075657        0.00020681        0.66266702        0.00041269
     132         -0.327331        0.000000        0.00079080        0.00015818        0.52454728        0.00026301
     133         -0.321259        0.000000        0.00081889        0.00024601        0.53036287        0.00025759
     134         -0.319503        0.000000        0.00060017        0.00009736        0.52600537        0.00027859
     135         -0.316608        0.000000        0.00040440        0.00025107        0.53101214        0.00020086
     136         -0.316036        0.000000        0.00043806        0.00012974        0.52952340        0.00007693
     137         -0.302630        0.000000        0.00088648        0.00011332        0.61115086        0.00027351
     138         -0.299743        0.000000        0.00095717        0.00022087        0.53323477        0.00017964
     139         -0.293487        0.000000        0.00046915        0.00020498        0.53122806        0.00009633
     140         -0.290677        0.000000        0.00042985        0.00011951        0.53430901        0.00018074
     141         -0.242783        0.000000        0.00077810        0.00016448        0.48982591        0.00009657
     142         -0.238369        0.000000        0.00101813        0.00016150        0.48903715        0.00017829
     143         -0.237297        0.000000        0.00058746        0.00018323        0.49421797        0.00009988
     144         -0.230426        0.000000        0.00024302        0.00012832        0.49179482        0.00011983
     145         -0.229724        0.000000        0.00039275        0.00016030        0.48999817        0.00014571
     146         -0.212187        0.000000        0.00072241        0.00010605        0.50508927        0.00008155
     147         -0.209886        0.000000        0.00047912        0.00007841        0.50475787        0.00012126
     148         -0.205982        0.000000        0.00038665        0.00009698        0.50445166        0.00013890
     149         -0.170099        0.000000        0.00104687        0.00011332        0.49441800        0.00009766
     150         -0.163398        0.000000        0.00064543        0.00008248        0.49314190        0.00008542
     151         -0.162410        0.000000        0.00039190        0.00006062        0.49512012        0.00008145
     152         -0.152855        0.000000        0.00052528        0.00003612        0.49631619        0.00006918
     153         -0.050133        0.000000        0.29487177        0.13273137        0.00074322        0.20138315
     154         -0.034599        0.000000        0.35337664        0.11537560        0.00060761        0.10078986
     155         -0.027434        0.000000        0.27918016        0.20946813        0.00044401        0.06088690
     156         -0.018649        0.000000        0.29064828        0.15207076        0.00036226        0.12303619
     157         -0.005471        0.000000        0.30128412        0.16551111        0.00065587        0.09313532
     158          0.002921        0.000000        0.39853668        0.09102392        0.00037193        0.09334093
     159          0.006471        0.000000        0.38288541        0.09179443        0.00013287        0.11473060
     160          0.017379        0.000000        0.33968211        0.07835555        0.00040807        0.15628354
     161          0.022624        0.000000        0.31750476        0.11116382        0.00061557        0.14201646
     162          0.027041        0.000000        0.37153551        0.09942629        0.00041466        0.09647826
     163          0.036369        0.000000        0.34968252        0.08602623        0.00039427        0.11924363
     164          0.045635        0.000000        0.29223489        0.08023394        0.00043888        0.19563842
     165          0.048554        0.000000        0.31741357        0.05790097        0.00026316        0.17888184
     166          0.054181        0.000000        0.37029429        0.03438167        0.00164427        0.13966111
     167          0.056958        0.000000        0.32544604        0.03523604        0.00146160        0.17972827
     168          0.058823        0.000000        0.34991508        0.07905440        0.00084202        0.11535348
     169          0.067064        0.000000        0.35760508        0.07856824        0.00110191        0.09821782
     170          0.068163        0.000000        0.39251565        0.06739234        0.00085969        0.10472418
     171          0.089944        0.000000        0.41073303        0.07165163        0.00289764        0.06193767
     172          0.097439        0.000000        0.37189325        0.05791609        0.00044091        0.13650532
     173          0.106278        0.000000        0.32822605        0.11211178        0.00059547        0.09701089
     174          0.108575        0.000000        0.39047664        0.08523845        0.00074206        0.04518482
     175          0.110394        0.000000        0.33534730        0.15495913        0.00031154        0.04196680
     176          0.132397        0.000000        0.27633131        0.23782004        0.00034184        0.02615230
     177          0.147891        0.000000        0.14140431        0.29668578        0.00012136        0.11626429
     178          0.172675        0.000000        0.16989317        0.12228017        0.00026014        0.25150220
