
     Program PWSCF v.6.2 (svn rev. 14038) starts on 26Apr2020 at 14:36:37 

     This program is part of the open-source Quantum ESPRESSO suite
     for quantum simulation of materials; please cite
         "P. Giannozzi et al., J. Phys.:Condens. Matter 21 395502 (2009);
         "P. Giannozzi et al., J. Phys.:Condens. Matter 29 465901 (2017);
          URL http://www.quantum-espresso.org", 
     in publications or presentations arising from this work. More details at
     http://www.quantum-espresso.org/quote

     Parallel version (MPI), running on     1 processors

     MPI processes distributed on     1 nodes
     Waiting for input...
     Reading input from standard input

     Current dimensions of program PWSCF are:
     Max number of different atomic species (ntypx) = 10
     Max number of k-points (npk) =  40000
     Max angular momentum in pseudopotentials (lmaxx) =  3
               file Ti.pbe-spn-rrkjus_psl.1.0.0.UPF: wavefunction(s)  3S 3D renormalized

     gamma-point specific algorithms are used

     Subspace diagonalization in iterative solution of the eigenvalue problem:
     a serial algorithm will be used

 
     G-vector sticks info
     --------------------
     sticks:   dense  smooth     PW     G-vecs:    dense   smooth      PW
     Sum        1789     725    177                37603     9479    1169
 


     bravais-lattice index     =            0
     lattice parameter (alat)  =       8.7055  a.u.
     unit-cell volume          =     428.4669 (a.u.)^3
     number of atoms/cell      =            6
     number of atomic types    =            2
     number of electrons       =        48.00
     number of Kohn-Sham states=           29
     kinetic-energy cutoff     =      30.0000  Ry
     charge density cutoff     =     300.0000  Ry
     convergence threshold     =      1.0E-04
     mixing beta               =       0.3000
     number of iterations used =            8  plain     mixing
     Exchange-correlation      = PBE ( 1  4  3  4 0 0)
     nstep                     =          100


     celldm(1)=   8.705547  celldm(2)=   0.000000  celldm(3)=   0.000000
     celldm(4)=   0.000000  celldm(5)=   0.000000  celldm(6)=   0.000000

     crystal axes: (cart. coord. in units of alat)
               a(1) = (   1.000000   0.000000   0.000000 )  
               a(2) = (   0.000000   1.000000   0.000000 )  
               a(3) = (   0.000000   0.000000   0.649425 )  

     reciprocal axes: (cart. coord. in units 2 pi/alat)
               b(1) = (  1.000000  0.000000  0.000000 )  
               b(2) = (  0.000000  1.000000  0.000000 )  
               b(3) = (  0.000000  0.000000  1.539823 )  


     PseudoPot. # 1 for Ti read from file:
     ./Ti.pbe-spn-rrkjus_psl.1.0.0.UPF
     MD5 check sum: e281089c08e14b8efcf92e44a67ada65
     Pseudo is Ultrasoft + core correction, Zval = 12.0
     Generated using "atomic" code by A. Dal Corso v.6.2.2
     Using radial grid of 1177 points,  6 beta functions with: 
                l(1) =   0
                l(2) =   0
                l(3) =   1
                l(4) =   1
                l(5) =   2
                l(6) =   2
     Q(r) pseudized with 0 coefficients 


     PseudoPot. # 2 for O  read from file:
     ./O.pbe-n-rrkjus_psl.1.0.0.UPF
     MD5 check sum: 91400c9766925bcf19f520983a725ff0
     Pseudo is Ultrasoft + core correction, Zval =  6.0
     Generated using "atomic" code by A. Dal Corso v.6.3MaX
     Using radial grid of 1095 points,  4 beta functions with: 
                l(1) =   0
                l(2) =   0
                l(3) =   1
                l(4) =   1
     Q(r) pseudized with 0 coefficients 


     atomic species   valence    mass     pseudopotential
        Ti            12.00    47.86700     Ti( 1.00)
        O              6.00    15.99900     O ( 1.00)

     No symmetry found



   Cartesian axes

     site n.     atom                  positions (alat units)
         1           Ti  tau(   1) = (   0.0000000   0.0000000   0.0000000  )
         2           Ti  tau(   2) = (   0.5000000   0.5000000   0.3247125  )
         3           O   tau(   3) = (   0.6955260   0.6955260   0.0000000  )
         4           O   tau(   4) = (   0.3044740   0.3044740   0.0000000  )
         5           O   tau(   5) = (   0.1955260   0.8044740   0.3247125  )
         6           O   tau(   6) = (   0.8044740   0.1955260   0.3247125  )

     number of k points=     1  gaussian smearing, width (Ry)=  0.0100
                       cart. coord. in units 2pi/alat
        k(    1) = (   0.0000000   0.0000000   0.0000000), wk =   2.0000000

     Dense  grid:    18802 G-vectors     FFT dimensions: (  48,  48,  32)

     Smooth grid:     4740 G-vectors     FFT dimensions: (  32,  32,  20)

     Estimated max dynamical RAM per process >      76.20 MB

     Check: negative/imaginary core charge=   -0.000018    0.000000

     Initial potential from superposition of free atoms

     starting charge   47.99704, renormalised to   48.00000
     Starting wfc are   36 randomized atomic wfcs

     total cpu time spent up to now is        2.2 secs

     Self-consistent Calculation

     iteration #  1     ecut=    30.00 Ry     beta= 0.30
     Davidson diagonalization with overlap
     ethr =  1.00E-02,  avg # of iterations =  2.0

     total cpu time spent up to now is        2.3 secs

     total energy              =    -368.39180847 Ry
     Harris-Foulkes estimate   =    -369.67591755 Ry
     estimated scf accuracy    <       2.92737815 Ry

     iteration #  2     ecut=    30.00 Ry     beta= 0.30
     Davidson diagonalization with overlap
     ethr =  6.10E-03,  avg # of iterations =  4.0

     total cpu time spent up to now is        2.6 secs

     total energy              =    -368.77162380 Ry
     Harris-Foulkes estimate   =    -368.79411632 Ry
     estimated scf accuracy    <       0.12448864 Ry

     iteration #  3     ecut=    30.00 Ry     beta= 0.30
     Davidson diagonalization with overlap
     ethr =  2.59E-04,  avg # of iterations =  5.0

     total cpu time spent up to now is        2.8 secs

     total energy              =    -368.80178221 Ry
     Harris-Foulkes estimate   =    -368.82542312 Ry
     estimated scf accuracy    <       0.07645840 Ry

     iteration #  4     ecut=    30.00 Ry     beta= 0.30
     Davidson diagonalization with overlap
     ethr =  1.59E-04,  avg # of iterations =  4.0

     total cpu time spent up to now is        3.1 secs

     total energy              =    -368.81986116 Ry
     Harris-Foulkes estimate   =    -368.83076543 Ry
     estimated scf accuracy    <       0.05838708 Ry

     iteration #  5     ecut=    30.00 Ry     beta= 0.30
     Davidson diagonalization with overlap
     ethr =  1.22E-04,  avg # of iterations =  2.0

     total cpu time spent up to now is        3.4 secs

     total energy              =    -368.82101670 Ry
     Harris-Foulkes estimate   =    -368.82400371 Ry
     estimated scf accuracy    <       0.00805119 Ry

     iteration #  6     ecut=    30.00 Ry     beta= 0.30
     Davidson diagonalization with overlap
     ethr =  1.68E-05,  avg # of iterations =  4.0

     total cpu time spent up to now is        3.6 secs

     total energy              =    -368.82377982 Ry
     Harris-Foulkes estimate   =    -368.82495023 Ry
     estimated scf accuracy    <       0.00332473 Ry

     iteration #  7     ecut=    30.00 Ry     beta= 0.30
     Davidson diagonalization with overlap
     ethr =  6.93E-06,  avg # of iterations =  3.0

     total cpu time spent up to now is        3.8 secs

     End of self-consistent calculation

          k = 0.0000 0.0000 0.0000 (   585 PWs)   bands (ev):

   -48.7910 -48.7797 -25.1676 -25.1619 -24.9018 -24.8965 -24.6916 -24.6475
    -8.7784  -7.5713  -6.9137  -6.9114   3.7268   4.0182   4.6291   5.6356
     5.6358   7.2145   7.2147   7.7452   8.9586   9.3261   9.3262   9.8437
    10.8878  11.3215  11.3465  11.3915  11.3961

     the Fermi energy is    10.3658 ev

!    total energy              =    -368.82444682 Ry
     Harris-Foulkes estimate   =    -368.82441687 Ry
     estimated scf accuracy    <       0.00007319 Ry

     convergence has been achieved in   7 iterations

     Forces acting on atoms (cartesian axes, Ry/au):

     atom    1 type  1   force =    -0.00016255   -0.00019192    0.00000257
     atom    2 type  1   force =     0.00018864    0.00015454    0.00028120
     atom    3 type  2   force =    -0.14002785   -0.13951315   -0.00006483
     atom    4 type  2   force =     0.14033993    0.14003393    0.00015770
     atom    5 type  2   force =    -0.14031354    0.13927788   -0.00038040
     atom    6 type  2   force =     0.13997538   -0.13976129    0.00000377

     Total force =     0.395714     Total SCF correction =     0.014076

     Molecular Dynamics Calculation

     Starting temperature  =   300.00 K

     temperature is controlled by Andersen thermostat
     Collision frequency = 0.1000/timestep
     mass Ti               =    47.87
     mass O                =    16.00
     Time step             =    20.67 a.u.,  1.0000 femto-seconds

     Entering Dynamics:    iteration =     1
                           time      =   0.0010 pico-seconds


     Andersen thermostat:    1 collisions

ATOMIC_POSITIONS (angstrom)
Ti       0.001113952  -0.000123837   0.000002724
Ti       2.299852990   2.301704652   1.493462121
O        3.208859540   3.199318050   0.003257104
O        1.400920292   1.410963941   0.004859852
O        0.901972004   3.707425517   1.498239475
O        3.709047892   0.901255587   1.492621119


     kinetic energy (Ekin) =     0.01445676 Ry
     temperature           =   304.33863269 K 
     Ekin + Etot (const)   =  -368.80999006 Ry

     Linear momentum :    0.0000000000   -0.0000000000   -0.0000000000

     Writing output data file x0.save
     NEW-OLD atomic charge density approx. for the potential

     Check: negative/imaginary core charge=   -0.000018    0.000000

     total cpu time spent up to now is        4.3 secs

     Self-consistent Calculation

     iteration #  1     ecut=    30.00 Ry     beta= 0.30
     Davidson diagonalization with overlap
     ethr =  1.00E-06,  avg # of iterations =  4.0

     total cpu time spent up to now is        4.5 secs

     total energy              =    -368.82680532 Ry
     Harris-Foulkes estimate   =    -368.82727328 Ry
     estimated scf accuracy    <       0.00109621 Ry

     iteration #  2     ecut=    30.00 Ry     beta= 0.30
     Davidson diagonalization with overlap
     ethr =  2.28E-06,  avg # of iterations =  3.0

     total cpu time spent up to now is        4.7 secs

     total energy              =    -368.82702198 Ry
     Harris-Foulkes estimate   =    -368.82710427 Ry
     estimated scf accuracy    <       0.00027293 Ry

     iteration #  3     ecut=    30.00 Ry     beta= 0.30
     Davidson diagonalization with overlap
     ethr =  5.69E-07,  avg # of iterations =  3.0

     total cpu time spent up to now is        4.8 secs

     End of self-consistent calculation

          k = 0.0000 0.0000 0.0000 (   585 PWs)   bands (ev):

   -48.7955 -48.7841 -25.1678 -25.1636 -24.9067 -24.9013 -24.6978 -24.6538
    -8.7759  -7.5716  -6.9087  -6.9020   3.7244   4.0147   4.6395   5.6248
     5.6288   7.2068   7.2276   7.7478   8.9594   9.3301   9.3333   9.8456
    10.8889  11.3279  11.3561  11.3909  11.3948

     the Fermi energy is    10.3672 ev

!    total energy              =    -368.82704199 Ry
     Harris-Foulkes estimate   =    -368.82705457 Ry
     estimated scf accuracy    <       0.00003551 Ry

     convergence has been achieved in   3 iterations

     Forces acting on atoms (cartesian axes, Ry/au):

     atom    1 type  1   force =    -0.00961722   -0.00502004   -0.01042405
     atom    2 type  1   force =    -0.00533909   -0.00346419   -0.01093002
     atom    3 type  2   force =    -0.13392015   -0.13340572    0.00736289
     atom    4 type  2   force =     0.14290943    0.14057093    0.00575767
     atom    5 type  2   force =    -0.13604294    0.14089064    0.00256982
     atom    6 type  2   force =     0.14200997   -0.13957162    0.00566369

     Total force =     0.392979     Total SCF correction =     0.019349

     Entering Dynamics:    iteration =     2
                           time      =   0.0020 pico-seconds


     Andersen thermostat:    1 collisions

ATOMIC_POSITIONS (angstrom)
Ti       0.002119777  -0.000139127   0.000492219
Ti       2.296231429   2.300137317   1.491530051
O        3.211451042   3.192568884   0.007169165
O        1.401936147   1.420254694   0.004950625
O        0.901031590   3.711137643   1.501181251
O        3.714206901   0.899736891   1.489992510


     kinetic energy (Ekin) =     0.01395401 Ry
     temperature           =   293.75476567 K 
     Ekin + Etot (const)   =  -368.81308799 Ry
     Message from routine dynamics:
     Total linear momentum <> 0

     Linear momentum :    0.0445546754   -0.1028634359   -0.4133985555

     Writing output data file x0.save

     first order wave-functions extrapolation
     first order charge density extrapolation

     Check: negative/imaginary core charge=   -0.000018    0.000000

     total cpu time spent up to now is        5.3 secs

     Self-consistent Calculation

     iteration #  1     ecut=    30.00 Ry     beta= 0.30
     Davidson diagonalization with overlap
     ethr =  1.00E-06,  avg # of iterations =  4.0

     total cpu time spent up to now is        5.5 secs

     total energy              =    -368.83387821 Ry
     Harris-Foulkes estimate   =    -368.83398573 Ry
     estimated scf accuracy    <       0.00025682 Ry

     iteration #  2     ecut=    30.00 Ry     beta= 0.30
     Davidson diagonalization with overlap
     ethr =  5.35E-07,  avg # of iterations =  3.0

     total cpu time spent up to now is        5.7 secs

     End of self-consistent calculation

          k = 0.0000 0.0000 0.0000 (   585 PWs)   bands (ev):

   -48.7704 -48.7608 -25.1473 -25.1397 -24.8821 -24.8792 -24.6748 -24.6312
    -8.7863  -7.5897  -6.9145  -6.8932   3.7189   4.0114   4.6431   5.6031
     5.6135   7.1903   7.2274   7.7461   8.9515   9.3213   9.3320   9.8267
    10.9160  11.3586  11.3957  11.4137  11.4150

     the Fermi energy is    10.3713 ev

!    total energy              =    -368.83387806 Ry
     Harris-Foulkes estimate   =    -368.83393624 Ry
     estimated scf accuracy    <       0.00007336 Ry

     convergence has been achieved in   2 iterations

     Forces acting on atoms (cartesian axes, Ry/au):

     atom    1 type  1   force =    -0.01652739   -0.01018705   -0.01369550
     atom    2 type  1   force =    -0.01046847   -0.00639675   -0.01657300
     atom    3 type  2   force =    -0.12681066   -0.12634118    0.00846888
     atom    4 type  2   force =     0.14273485    0.13874581    0.00957472
     atom    5 type  2   force =    -0.12916677    0.13954339    0.00255828
     atom    6 type  2   force =     0.14023844   -0.13536423    0.00966662

     Total force =     0.383492     Total SCF correction =     0.032271

     Entering Dynamics:    iteration =     3
                           time      =   0.0030 pico-seconds


ATOMIC_POSITIONS (angstrom)
Ti       0.003039950  -0.000207212   0.000910737
Ti       2.292555616   2.298536831   1.489512092
O        3.212076296   3.183860751   0.011212540
O        1.405165158   1.431696752   0.005189857
O        0.898088398   3.717013442   1.504162694
O        3.721540360   0.896119322   1.487513786


     kinetic energy (Ekin) =     0.02073070 Ry
     temperature           =   436.41527672 K 
     Ekin + Etot (const)   =  -368.81314736 Ry

     Linear momentum :   -0.0000000000   -0.0000000000   -0.0000000000

     Writing output data file x0.save

     second order wave-functions extrapolation
     second order charge density extrapolation

     Check: negative/imaginary core charge=   -0.000018    0.000000

     total cpu time spent up to now is        6.1 secs

     Self-consistent Calculation

     iteration #  1     ecut=    30.00 Ry     beta= 0.30
     Davidson diagonalization with overlap
     ethr =  1.00E-06,  avg # of iterations =  5.0

     total cpu time spent up to now is        6.3 secs

     total energy              =    -368.84379007 Ry
     Harris-Foulkes estimate   =    -368.84549409 Ry
     estimated scf accuracy    <       0.00363582 Ry

     iteration #  2     ecut=    30.00 Ry     beta= 0.30
     Davidson diagonalization with overlap
     ethr =  7.57E-06,  avg # of iterations =  4.0

     total cpu time spent up to now is        6.5 secs

     total energy              =    -368.84465419 Ry
     Harris-Foulkes estimate   =    -368.84508479 Ry
     estimated scf accuracy    <       0.00138116 Ry

     iteration #  3     ecut=    30.00 Ry     beta= 0.30
     Davidson diagonalization with overlap
     ethr =  2.88E-06,  avg # of iterations =  4.0

     total cpu time spent up to now is        6.7 secs

     End of self-consistent calculation

          k = 0.0000 0.0000 0.0000 (   585 PWs)   bands (ev):

   -48.7523 -48.7240 -25.1253 -25.1073 -24.8649 -24.8427 -24.6554 -24.6053
    -8.8047  -7.6179  -6.9179  -6.8935   3.7047   3.9995   4.6489   5.5662
     5.5825   7.1639   7.2210   7.7410   8.9367   9.3079   9.3271   9.7928
    10.9508  11.4005  11.4287  11.4368  11.4678

     the Fermi energy is    10.3714 ev

!    total energy              =    -368.84481277 Ry
     Harris-Foulkes estimate   =    -368.84483046 Ry
     estimated scf accuracy    <       0.00002258 Ry

     convergence has been achieved in   3 iterations

     Forces acting on atoms (cartesian axes, Ry/au):

     atom    1 type  1   force =    -0.02772978   -0.01478218   -0.02011135
     atom    2 type  1   force =    -0.01595543   -0.01073192   -0.02471749
     atom    3 type  2   force =    -0.11591110   -0.11322128    0.01117168
     atom    4 type  2   force =     0.14211022    0.13503881    0.01500519
     atom    5 type  2   force =    -0.11939117    0.13499649    0.00374181
     atom    6 type  2   force =     0.13687725   -0.13129992    0.01491015

     Total force =     0.368914     Total SCF correction =     0.018448

     Entering Dynamics:    iteration =     4
                           time      =   0.0040 pico-seconds


ATOMIC_POSITIONS (angstrom)
Ti       0.003816413  -0.000351906   0.001225028
Ti       2.288797113   2.296880728   1.487366035
O        3.210904306   3.173397080   0.015429136
O        1.410597642   1.445232637   0.005661750
O        0.893294000   3.724982412   1.507202156
O        3.730996152   0.890465898   1.485266250


     kinetic energy (Ekin) =     0.03157788 Ry
     temperature           =   664.76617069 K 
     Ekin + Etot (const)   =  -368.81323489 Ry

     Linear momentum :   -0.0000000000   -0.0000000000    0.0000000000

     Writing output data file x0.save

     second order wave-functions extrapolation
     second order charge density extrapolation

     Check: negative/imaginary core charge=   -0.000018    0.000000

     total cpu time spent up to now is        7.2 secs

     Self-consistent Calculation

     iteration #  1     ecut=    30.00 Ry     beta= 0.30
     Davidson diagonalization with overlap
     ethr =  1.00E-06,  avg # of iterations =  5.0

     total cpu time spent up to now is        7.4 secs

     total energy              =    -368.85867624 Ry
     Harris-Foulkes estimate   =    -368.85951370 Ry
     estimated scf accuracy    <       0.00182332 Ry

     iteration #  2     ecut=    30.00 Ry     beta= 0.30
     Davidson diagonalization with overlap
     ethr =  3.80E-06,  avg # of iterations =  4.0

     total cpu time spent up to now is        7.6 secs

     total energy              =    -368.85903248 Ry
     Harris-Foulkes estimate   =    -368.85922914 Ry
     estimated scf accuracy    <       0.00060798 Ry

     iteration #  3     ecut=    30.00 Ry     beta= 0.30
     Davidson diagonalization with overlap
     ethr =  1.27E-06,  avg # of iterations =  4.0

     total cpu time spent up to now is        7.8 secs

     End of self-consistent calculation

          k = 0.0000 0.0000 0.0000 (   585 PWs)   bands (ev):

   -48.7100 -48.6861 -25.0863 -25.0733 -24.8230 -24.8057 -24.6184 -24.5696
    -8.8277  -7.6548  -6.9232  -6.8840   3.6902   3.9871   4.6570   5.5161
     5.5443   7.1347   7.2110   7.7374   8.9204   9.2919   9.3243   9.7521
    11.0013  11.4496  11.4684  11.4769  11.5537

     the Fermi energy is    10.3709 ev

!    total energy              =    -368.85908878 Ry
     Harris-Foulkes estimate   =    -368.85911509 Ry
     estimated scf accuracy    <       0.00003508 Ry

     convergence has been achieved in   3 iterations

     Forces acting on atoms (cartesian axes, Ry/au):

     atom    1 type  1   force =    -0.03518194   -0.02142508   -0.02471638
     atom    2 type  1   force =    -0.02100620   -0.00862034   -0.02825395
     atom    3 type  2   force =    -0.10514350   -0.10155090    0.01186552
     atom    4 type  2   force =     0.13829999    0.12691101    0.01738873
     atom    5 type  2   force =    -0.10870865    0.12950841    0.00376885
     atom    6 type  2   force =     0.13174031   -0.12482311    0.01994723

     Total force =     0.350149     Total SCF correction =     0.028892

     Entering Dynamics:    iteration =     5
                           time      =   0.0050 pico-seconds


ATOMIC_POSITIONS (angstrom)
Ti       0.004410545  -0.000607635   0.001411227
Ti       2.284929746   2.295179949   1.485073552
O        3.208102026   3.161358824   0.019829712
O        1.418174519   1.460736325   0.006403263
O        0.886814034   3.734959458   1.510300054
O        3.742494627   0.882877045   1.483328002


     kinetic energy (Ekin) =     0.04574435 Ry
     temperature           =   962.99383325 K 
     Ekin + Etot (const)   =  -368.81334443 Ry

     Linear momentum :    0.0000000000    0.0000000000    0.0000000000

     Writing output data file x0.save

     second order wave-functions extrapolation
     second order charge density extrapolation

     Check: negative/imaginary core charge=   -0.000018    0.000000

     total cpu time spent up to now is        8.5 secs

     Self-consistent Calculation

     iteration #  1     ecut=    30.00 Ry     beta= 0.30
     Davidson diagonalization with overlap
     ethr =  1.00E-06,  avg # of iterations =  5.0

     total cpu time spent up to now is        8.7 secs

     total energy              =    -368.87528679 Ry
     Harris-Foulkes estimate   =    -368.87621777 Ry
     estimated scf accuracy    <       0.00203698 Ry

     iteration #  2     ecut=    30.00 Ry     beta= 0.30
     Davidson diagonalization with overlap
     ethr =  4.24E-06,  avg # of iterations =  4.0

     total cpu time spent up to now is        8.9 secs

     total energy              =    -368.87565916 Ry
     Harris-Foulkes estimate   =    -368.87586405 Ry
     estimated scf accuracy    <       0.00063435 Ry

     iteration #  3     ecut=    30.00 Ry     beta= 0.30
     Davidson diagonalization with overlap
     ethr =  1.32E-06,  avg # of iterations =  4.0

     total cpu time spent up to now is        9.0 secs

     End of self-consistent calculation

          k = 0.0000 0.0000 0.0000 (   585 PWs)   bands (ev):

   -48.6681 -48.6387 -25.0430 -25.0278 -24.7858 -24.7587 -24.5819 -24.5329
    -8.8641  -7.7105  -6.9298  -6.8777   3.6652   3.9628   4.6660   5.4470
     5.4869   7.0930   7.1920   7.7290   8.8953   9.2591   9.3159   9.7039
    11.0596  11.4891  11.5045  11.5484  11.6615

     the Fermi energy is    10.3880 ev

!    total energy              =    -368.87570815 Ry
     Harris-Foulkes estimate   =    -368.87574304 Ry
     estimated scf accuracy    <       0.00004627 Ry

     convergence has been achieved in   3 iterations

     Forces acting on atoms (cartesian axes, Ry/au):

     atom    1 type  1   force =    -0.04637575   -0.02748448   -0.03180577
     atom    2 type  1   force =    -0.02409558   -0.00837603   -0.03954264
     atom    3 type  2   force =    -0.09115189   -0.08508892    0.01524783
     atom    4 type  2   force =     0.13315174    0.11603865    0.02316512
     atom    5 type  2   force =    -0.09561965    0.11922599    0.00600178
     atom    6 type  2   force =     0.12409113   -0.11431520    0.02693368

     Total force =     0.325930     Total SCF correction =     0.035693
     SCF correction compared to forces is large: reduce conv_thr to get better values

     Entering Dynamics:    iteration =     6
                           time      =   0.0060 pico-seconds


     Andersen thermostat:    1 collisions

ATOMIC_POSITIONS (angstrom)
Ti       0.004519774  -0.000192302   0.002755737
Ti       2.280692942   2.294249261   1.483899284
O        3.203641840   3.148814733   0.025789855
O        1.427571401   1.478852736   0.008827103
O        0.881048535   3.739476867   1.501604214
O        3.755672619   0.874329193   1.483130516


     kinetic energy (Ekin) =     0.05817889 Ry
     temperature           =  1224.76116391 K 
     Ekin + Etot (const)   =  -368.81752926 Ry
     Message from routine dynamics:
     Total linear momentum <> 0

     Linear momentum :    0.1869504854   -0.6218633616   -1.0114505339

     Writing output data file x0.save

     second order wave-functions extrapolation
     second order charge density extrapolation

     Check: negative/imaginary core charge=   -0.000018    0.000000

     total cpu time spent up to now is        9.5 secs

     Self-consistent Calculation

     iteration #  1     ecut=    30.00 Ry     beta= 0.30
     Davidson diagonalization with overlap
     ethr =  1.00E-06,  avg # of iterations =  4.0

     total cpu time spent up to now is        9.7 secs

     total energy              =    -368.89091221 Ry
     Harris-Foulkes estimate   =    -368.89199390 Ry
     estimated scf accuracy    <       0.00247854 Ry

     iteration #  2     ecut=    30.00 Ry     beta= 0.30
     Davidson diagonalization with overlap
     ethr =  5.16E-06,  avg # of iterations =  4.0

     total cpu time spent up to now is        9.9 secs

     total energy              =    -368.89125043 Ry
     Harris-Foulkes estimate   =    -368.89149012 Ry
     estimated scf accuracy    <       0.00073863 Ry

     iteration #  3     ecut=    30.00 Ry     beta= 0.30
     Davidson diagonalization with overlap
     ethr =  1.54E-06,  avg # of iterations =  3.0

     total cpu time spent up to now is       10.1 secs

     total energy              =    -368.89128573 Ry
     Harris-Foulkes estimate   =    -368.89133915 Ry
     estimated scf accuracy    <       0.00010281 Ry

     iteration #  4     ecut=    30.00 Ry     beta= 0.30
     Davidson diagonalization with overlap
     ethr =  2.14E-07,  avg # of iterations =  4.0

     total cpu time spent up to now is       10.3 secs

     End of self-consistent calculation

          k = 0.0000 0.0000 0.0000 (   585 PWs)   bands (ev):

   -48.6347 -48.5794 -25.0102 -24.9757 -24.7490 -24.7056 -24.5501 -24.4850
    -8.8957  -7.7588  -6.9334  -6.8647   3.6461   3.9423   4.6777   5.3749
     5.4383   7.0567   7.1732   7.7240   8.8765   9.2315   9.3179   9.6627
    11.1211  11.5183  11.5492  11.6248  11.7781

     the Fermi energy is    10.3834 ev

!    total energy              =    -368.89129281 Ry
     Harris-Foulkes estimate   =    -368.89131553 Ry
     estimated scf accuracy    <       0.00002805 Ry

     convergence has been achieved in   4 iterations

     Forces acting on atoms (cartesian axes, Ry/au):

     atom    1 type  1   force =    -0.05760744   -0.03020790   -0.02982907
     atom    2 type  1   force =    -0.03219158   -0.00074270   -0.03304168
     atom    3 type  2   force =    -0.07453002   -0.06683609    0.01132918
     atom    4 type  2   force =     0.12433590    0.09923054    0.02179050
     atom    5 type  2   force =    -0.07973850    0.10886150    0.00761599
     atom    6 type  2   force =     0.11973164   -0.11030535    0.02213509

     Total force =     0.297390     Total SCF correction =     0.019315

     Entering Dynamics:    iteration =     7
                           time      =   0.0070 pico-seconds


ATOMIC_POSITIONS (angstrom)
Ti       0.004330452   0.000066479   0.003945658
Ti       2.276289305   2.293314725   1.482553777
O        3.198026038   3.135234323   0.031925661
O        1.438896158   1.498507753   0.011588814
O        0.874046660   3.745682215   1.493026463
O        3.770707094   0.864071014   1.483276243


     kinetic energy (Ekin) =     0.07331766 Ry
     temperature           =  1543.45712220 K 
     Ekin + Etot (const)   =  -368.81797515 Ry

     Linear momentum :    0.0000000000   -0.0000000000   -0.0000000000

     Writing output data file x0.save

     second order wave-functions extrapolation
     second order charge density extrapolation

     Check: negative/imaginary core charge=   -0.000018    0.000000

     total cpu time spent up to now is       10.8 secs

     Self-consistent Calculation

     iteration #  1     ecut=    30.00 Ry     beta= 0.30
     Davidson diagonalization with overlap
     ethr =  1.00E-06,  avg # of iterations =  5.0

     total cpu time spent up to now is       10.9 secs

     total energy              =    -368.90666925 Ry
     Harris-Foulkes estimate   =    -368.90742020 Ry
     estimated scf accuracy    <       0.00160602 Ry

     iteration #  2     ecut=    30.00 Ry     beta= 0.30
     Davidson diagonalization with overlap
     ethr =  3.35E-06,  avg # of iterations =  4.0

     total cpu time spent up to now is       11.1 secs

     total energy              =    -368.90706235 Ry
     Harris-Foulkes estimate   =    -368.90722987 Ry
     estimated scf accuracy    <       0.00053209 Ry

     iteration #  3     ecut=    30.00 Ry     beta= 0.30
     Davidson diagonalization with overlap
     ethr =  1.11E-06,  avg # of iterations =  4.0

     total cpu time spent up to now is       11.3 secs

     End of self-consistent calculation

          k = 0.0000 0.0000 0.0000 (   585 PWs)   bands (ev):

   -48.5918 -48.5115 -24.9672 -24.9151 -24.7064 -24.6419 -24.5125 -24.4322
    -8.9398  -7.8263  -6.9386  -6.8410   3.6202   3.9132   4.6884   5.2897
     5.3735   7.0108   7.1488   7.7193   8.8563   9.1827   9.3195   9.6297
    11.1951  11.5533  11.5973  11.7166  11.9175

     the Fermi energy is    10.2817 ev

!    total energy              =    -368.90713411 Ry
     Harris-Foulkes estimate   =    -368.90713556 Ry
     estimated scf accuracy    <       0.00000391 Ry

     convergence has been achieved in   3 iterations

     Forces acting on atoms (cartesian axes, Ry/au):

     atom    1 type  1   force =    -0.06755616   -0.03457524   -0.02925853
     atom    2 type  1   force =    -0.03739426    0.00822135   -0.02862022
     atom    3 type  2   force =    -0.05602515   -0.04638727    0.00760706
     atom    4 type  2   force =     0.11182285    0.07801462    0.02102806
     atom    5 type  2   force =    -0.06218889    0.09633842    0.01088081
     atom    6 type  2   force =     0.11134162   -0.10161187    0.01836282

     Total force =     0.263833     Total SCF correction =     0.006618

     Entering Dynamics:    iteration =     8
                           time      =   0.0080 pico-seconds


     Andersen thermostat:    2 collisions

ATOMIC_POSITIONS (angstrom)
Ti       0.007486131   0.000374759   0.005817870
Ti       2.275386982   2.292651482   1.481893870
O        3.195236655   3.121163347   0.039013341
O        1.437213830   1.503336963   0.007990011
O        0.869775633   3.753610012   1.485451347
O        3.772708076   0.866446986   1.483735420


     kinetic energy (Ekin) =     0.03063779 Ry
     temperature           =   644.97577731 K 
     Ekin + Etot (const)   =  -368.87649632 Ry
     Message from routine dynamics:
     Total linear momentum <> 0

     Linear momentum :   -2.8246503838   -0.1748144611   -0.6374754491

     Writing output data file x0.save

     second order wave-functions extrapolation
     second order charge density extrapolation

     Check: negative/imaginary core charge=   -0.000018    0.000000

     total cpu time spent up to now is       11.8 secs

     Self-consistent Calculation

     iteration #  1     ecut=    30.00 Ry     beta= 0.30
     Davidson diagonalization with overlap
     ethr =  1.00E-06,  avg # of iterations =  5.0

     total cpu time spent up to now is       12.0 secs

     total energy              =    -368.90664860 Ry
     Harris-Foulkes estimate   =    -368.91234232 Ry
     estimated scf accuracy    <       0.01229008 Ry

     iteration #  2     ecut=    30.00 Ry     beta= 0.30
     Davidson diagonalization with overlap
     ethr =  2.56E-05,  avg # of iterations =  4.0

     total cpu time spent up to now is       12.2 secs

     total energy              =    -368.90953100 Ry
     Harris-Foulkes estimate   =    -368.91073189 Ry
     estimated scf accuracy    <       0.00380439 Ry

     iteration #  3     ecut=    30.00 Ry     beta= 0.30
     Davidson diagonalization with overlap
     ethr =  7.93E-06,  avg # of iterations =  4.0

     total cpu time spent up to now is       12.3 secs

     End of self-consistent calculation

          k = 0.0000 0.0000 0.0000 (   585 PWs)   bands (ev):

   -48.5935 -48.4916 -24.9672 -24.8994 -24.7051 -24.6232 -24.5154 -24.4173
    -8.9466  -7.8343  -6.9447  -6.8339   3.6165   3.9048   4.6940   5.2743
     5.3495   6.9945   7.1483   7.7126   8.8537   9.1893   9.3359   9.6024
    11.2063  11.5505  11.6084  11.7428  11.9569

     the Fermi energy is    10.3198 ev

!    total energy              =    -368.91005031 Ry
     Harris-Foulkes estimate   =    -368.91006735 Ry
     estimated scf accuracy    <       0.00006633 Ry

     convergence has been achieved in   3 iterations

     Forces acting on atoms (cartesian axes, Ry/au):

     atom    1 type  1   force =    -0.06071609   -0.03502075   -0.02540946
     atom    2 type  1   force =    -0.02673851    0.01042813   -0.02617302
     atom    3 type  2   force =    -0.05499239   -0.03961610    0.00111280
     atom    4 type  2   force =     0.10221135    0.06557104    0.02453143
     atom    5 type  2   force =    -0.06158364    0.09549291    0.01261948
     atom    6 type  2   force =     0.10181928   -0.09685523    0.01331878

     Total force =     0.244963     Total SCF correction =     0.023805

     Entering Dynamics:    iteration =     9
                           time      =   0.0090 pico-seconds


ATOMIC_POSITIONS (angstrom)
Ti       0.010327148   0.000501545   0.007558397
Ti       2.274346087   2.292042282   1.481098321
O        3.191594595   3.106478108   0.046118276
O        1.437116326   1.509182876   0.004771576
O        0.864549729   3.763018462   1.478071900
O        3.776287803   0.867321181   1.484401109


     kinetic energy (Ekin) =     0.03138826 Ry
     temperature           =   660.77447272 K 
     Ekin + Etot (const)   =  -368.87866205 Ry

     Linear momentum :   -0.0000000000   -0.0000000000   -0.0000000000

     Writing output data file x0.save

     second order wave-functions extrapolation
     second order charge density extrapolation

     Check: negative/imaginary core charge=   -0.000018    0.000000

     total cpu time spent up to now is       12.8 secs

     Self-consistent Calculation

     iteration #  1     ecut=    30.00 Ry     beta= 0.30
     Davidson diagonalization with overlap
     ethr =  1.00E-06,  avg # of iterations =  4.0

     total cpu time spent up to now is       13.0 secs

     total energy              =    -368.91398434 Ry
     Harris-Foulkes estimate   =    -368.91413623 Ry
     estimated scf accuracy    <       0.00033576 Ry

     iteration #  2     ecut=    30.00 Ry     beta= 0.30
     Davidson diagonalization with overlap
     ethr =  7.00E-07,  avg # of iterations =  4.0

     total cpu time spent up to now is       13.2 secs

     End of self-consistent calculation

          k = 0.0000 0.0000 0.0000 (   585 PWs)   bands (ev):

   -48.5804 -48.4674 -24.9562 -24.8793 -24.6891 -24.6030 -24.5050 -24.3949
    -8.9590  -7.8506  -6.9489  -6.8333   3.6132   3.8963   4.6987   5.2492
     5.3173   6.9743   7.1396   7.7020   8.8451   9.1905   9.3500   9.5689
    11.2306  11.5581  11.6238  11.7818  12.0141

     the Fermi energy is    10.3757 ev

!    total energy              =    -368.91400160 Ry
     Harris-Foulkes estimate   =    -368.91408178 Ry
     estimated scf accuracy    <       0.00009073 Ry

     convergence has been achieved in   2 iterations

     Forces acting on atoms (cartesian axes, Ry/au):

     atom    1 type  1   force =    -0.05345027   -0.02749128   -0.02338037
     atom    2 type  1   force =    -0.01822597    0.00606889   -0.02014575
     atom    3 type  2   force =    -0.05181201   -0.02796472   -0.00733228
     atom    4 type  2   force =     0.09072541    0.05430324    0.02602843
     atom    5 type  2   force =    -0.05898489    0.08893343    0.01584052
     atom    6 type  2   force =     0.09174773   -0.09384957    0.00898946

     Total force =     0.221940     Total SCF correction =     0.034777
     SCF correction compared to forces is large: reduce conv_thr to get better values

     Entering Dynamics:    iteration =    10
                           time      =   0.0100 pico-seconds


     Andersen thermostat:    1 collisions

ATOMIC_POSITIONS (angstrom)
Ti       0.012602298   0.001235168   0.009037999
Ti       2.272921873   2.292213845   1.480058610
O        3.186860307   3.092108576   0.052969763
O        1.441020624   1.509139171   0.003212264
O        0.858120379   3.774555168   1.470798309
O        3.781001251   0.867489513   1.485066427


     kinetic energy (Ekin) =     0.03304995 Ry
     temperature           =   695.75583518 K 
     Ekin + Etot (const)   =  -368.88095165 Ry
     Message from routine dynamics:
     Total linear momentum <> 0

     Linear momentum :    0.2208150474   -0.5727943447    0.1068343118

     Writing output data file x0.save

     second order wave-functions extrapolation
     second order charge density extrapolation

     Check: negative/imaginary core charge=   -0.000018    0.000000

     total cpu time spent up to now is       13.6 secs

     Self-consistent Calculation

     iteration #  1     ecut=    30.00 Ry     beta= 0.30
     Davidson diagonalization with overlap
     ethr =  1.00E-06,  avg # of iterations =  5.0

     total cpu time spent up to now is       13.8 secs

     total energy              =    -368.91621034 Ry
     Harris-Foulkes estimate   =    -368.91993686 Ry
     estimated scf accuracy    <       0.00801107 Ry

     iteration #  2     ecut=    30.00 Ry     beta= 0.30
     Davidson diagonalization with overlap
     ethr =  1.67E-05,  avg # of iterations =  4.0

     total cpu time spent up to now is       14.0 secs

     total energy              =    -368.91808578 Ry
     Harris-Foulkes estimate   =    -368.91887262 Ry
     estimated scf accuracy    <       0.00245836 Ry

     iteration #  3     ecut=    30.00 Ry     beta= 0.30
     Davidson diagonalization with overlap
     ethr =  5.12E-06,  avg # of iterations =  4.0

     total cpu time spent up to now is       14.2 secs

     End of self-consistent calculation

          k = 0.0000 0.0000 0.0000 (   585 PWs)   bands (ev):

   -48.5728 -48.4425 -24.9491 -24.8569 -24.6794 -24.5803 -24.5017 -24.3771
    -8.9749  -7.8745  -6.9435  -6.8271   3.6047   3.8816   4.7057   5.2228
     5.2773   6.9565   7.1263   7.6963   8.8396   9.1826   9.3625   9.5484
    11.2562  11.5607  11.6412  11.8252  12.0735

     the Fermi energy is    10.4334 ev

!    total energy              =    -368.91837158 Ry
     Harris-Foulkes estimate   =    -368.91841334 Ry
     estimated scf accuracy    <       0.00006007 Ry

     convergence has been achieved in   3 iterations

     Forces acting on atoms (cartesian axes, Ry/au):

     atom    1 type  1   force =    -0.04741417   -0.02583340   -0.02179761
     atom    2 type  1   force =    -0.00880355    0.01217700   -0.02147324
     atom    3 type  2   force =    -0.04930136   -0.02270630   -0.01246237
     atom    4 type  2   force =     0.07837474    0.04060881    0.02944836
     atom    5 type  2   force =    -0.05322753    0.08112413    0.02066283
     atom    6 type  2   force =     0.08037187   -0.08537024    0.00562203

     Total force =     0.198642     Total SCF correction =     0.031147
     SCF correction compared to forces is large: reduce conv_thr to get better values

     Entering Dynamics:    iteration =    11
                           time      =   0.0110 pico-seconds


ATOMIC_POSITIONS (angstrom)
Ti       0.014631723   0.001834908   0.010404635
Ti       2.271452035   2.292448514   1.478907614
O        3.181361583   3.077386975   0.059628017
O        1.446140150   1.509725121   0.002109559
O        0.850865716   3.787349734   1.463845103
O        3.786960894   0.866334148   1.485818916


     kinetic energy (Ekin) =     0.03726041 Ry
     temperature           =   784.39288769 K 
     Ekin + Etot (const)   =  -368.88111117 Ry

     Linear momentum :    0.0000000000    0.0000000000    0.0000000000

     Writing output data file x0.save

     second order wave-functions extrapolation
     second order charge density extrapolation

     Check: negative/imaginary core charge=   -0.000018    0.000000

     total cpu time spent up to now is       14.7 secs

     Self-consistent Calculation

     iteration #  1     ecut=    30.00 Ry     beta= 0.30
     Davidson diagonalization with overlap
     ethr =  1.00E-06,  avg # of iterations =  4.0

     total cpu time spent up to now is       14.9 secs

     total energy              =    -368.92274968 Ry
     Harris-Foulkes estimate   =    -368.92304887 Ry
     estimated scf accuracy    <       0.00066931 Ry

     iteration #  2     ecut=    30.00 Ry     beta= 0.30
     Davidson diagonalization with overlap
     ethr =  1.39E-06,  avg # of iterations =  4.0

     total cpu time spent up to now is       15.1 secs

     total energy              =    -368.92285462 Ry
     Harris-Foulkes estimate   =    -368.92291477 Ry
     estimated scf accuracy    <       0.00018187 Ry

     iteration #  3     ecut=    30.00 Ry     beta= 0.30
     Davidson diagonalization with overlap
     ethr =  3.79E-07,  avg # of iterations =  3.0

     total cpu time spent up to now is       15.3 secs

     End of self-consistent calculation

          k = 0.0000 0.0000 0.0000 (   585 PWs)   bands (ev):

   -48.5561 -48.4182 -24.9355 -24.8342 -24.6619 -24.5600 -24.4890 -24.3583
    -8.9931  -7.9028  -6.9342  -6.8242   3.5975   3.8672   4.7132   5.1902
     5.2303   6.9369   7.1088   7.6894   8.8316   9.1740   9.3743   9.5275
    11.2898  11.5712  11.6586  11.8765  12.1455

     the Fermi energy is    10.5037 ev

!    total energy              =    -368.92286211 Ry
     Harris-Foulkes estimate   =    -368.92287823 Ry
     estimated scf accuracy    <       0.00002296 Ry

     convergence has been achieved in   3 iterations

     Forces acting on atoms (cartesian axes, Ry/au):

     atom    1 type  1   force =    -0.04077658   -0.01335646   -0.02312627
     atom    2 type  1   force =    -0.00366316    0.00965109   -0.01552929
     atom    3 type  2   force =    -0.04353959   -0.01298430   -0.02019478
     atom    4 type  2   force =     0.06467191    0.02757261    0.03011318
     atom    5 type  2   force =    -0.04441168    0.06918655    0.02581865
     atom    6 type  2   force =     0.06771909   -0.08006948    0.00291851

     Total force =     0.171687     Total SCF correction =     0.023386
     SCF correction compared to forces is large: reduce conv_thr to get better values

     Entering Dynamics:    iteration =    12
                           time      =   0.0120 pico-seconds


     Andersen thermostat:    1 collisions

ATOMIC_POSITIONS (angstrom)
Ti       0.016381228   0.002030236   0.011720644
Ti       2.269894616   2.292398008   1.477745363
O        3.175119164   3.062128854   0.066042368
O        1.452193842   1.510403401   0.001542995
O        0.842853837   3.800881871   1.457361450
O        3.794586806   0.866948565   1.485994756


     kinetic energy (Ekin) =     0.04211894 Ry
     temperature           =   886.67283724 K 
     Ekin + Etot (const)   =  -368.88074318 Ry
     Message from routine dynamics:
     Total linear momentum <> 0

     Linear momentum :    0.0524375491    0.2562313807   -0.0529177154

     Writing output data file x0.save

     second order wave-functions extrapolation
     second order charge density extrapolation

     Check: negative/imaginary core charge=   -0.000018    0.000000

     total cpu time spent up to now is       15.7 secs

     Self-consistent Calculation

     iteration #  1     ecut=    30.00 Ry     beta= 0.30
     Davidson diagonalization with overlap
     ethr =  1.00E-06,  avg # of iterations =  4.0

     total cpu time spent up to now is       15.9 secs

     total energy              =    -368.92642144 Ry
     Harris-Foulkes estimate   =    -368.92661974 Ry
     estimated scf accuracy    <       0.00045996 Ry

     iteration #  2     ecut=    30.00 Ry     beta= 0.30
     Davidson diagonalization with overlap
     ethr =  9.58E-07,  avg # of iterations =  3.0

     total cpu time spent up to now is       16.1 secs

     End of self-consistent calculation

          k = 0.0000 0.0000 0.0000 (   585 PWs)   bands (ev):

   -48.5374 -48.3886 -24.9182 -24.8074 -24.6425 -24.5338 -24.4789 -24.3361
    -9.0155  -7.9371  -6.9193  -6.8183   3.5868   3.8485   4.7208   5.1530
     5.1827   6.9157   7.0877   7.6843   8.8274   9.1559   9.3843   9.5188
    11.3296  11.5815  11.6817  11.9324  12.2261

     the Fermi energy is    10.5823 ev

!    total energy              =    -368.92643175 Ry
     Harris-Foulkes estimate   =    -368.92649419 Ry
     estimated scf accuracy    <       0.00007826 Ry

     convergence has been achieved in   2 iterations

     Forces acting on atoms (cartesian axes, Ry/au):

     atom    1 type  1   force =    -0.03818761   -0.01124548   -0.02152215
     atom    2 type  1   force =     0.00616186    0.01358532   -0.01796983
     atom    3 type  2   force =    -0.03648130   -0.00210176   -0.02563580
     atom    4 type  2   force =     0.04978776    0.01262136    0.03173477
     atom    5 type  2   force =    -0.03449507    0.05617615    0.03181123
     atom    6 type  2   force =     0.05321436   -0.06903559    0.00158178

     Total force =     0.145564     Total SCF correction =     0.045914
     SCF correction compared to forces is large: reduce conv_thr to get better values

     Entering Dynamics:    iteration =    13
                           time      =   0.0130 pico-seconds


ATOMIC_POSITIONS (angstrom)
Ti       0.017932825   0.002167285   0.012925115
Ti       2.268369130   2.292417907   1.476489983
O        3.168311089   3.046838144   0.072059227
O        1.459019512   1.511277381   0.001468491
O        0.834307099   3.815285040   1.451371042
O        3.803037826   0.866492559   1.486195123


     kinetic energy (Ekin) =     0.04560358 Ry
     temperature           =   960.03025475 K 
     Ekin + Etot (const)   =  -368.88082817 Ry

     Linear momentum :    0.0000000000   -0.0000000000   -0.0000000000

     Writing output data file x0.save

     second order wave-functions extrapolation
     second order charge density extrapolation

     Check: negative/imaginary core charge=   -0.000018    0.000000

     total cpu time spent up to now is       16.6 secs

     Self-consistent Calculation

     iteration #  1     ecut=    30.00 Ry     beta= 0.30
     Davidson diagonalization with overlap
     ethr =  1.00E-06,  avg # of iterations =  5.0

     total cpu time spent up to now is       16.8 secs

     total energy              =    -368.92882597 Ry
     Harris-Foulkes estimate   =    -368.92943292 Ry
     estimated scf accuracy    <       0.00133530 Ry

     iteration #  2     ecut=    30.00 Ry     beta= 0.30
     Davidson diagonalization with overlap
     ethr =  2.78E-06,  avg # of iterations =  4.0

     total cpu time spent up to now is       17.0 secs

     total energy              =    -368.92907273 Ry
     Harris-Foulkes estimate   =    -368.92917812 Ry
     estimated scf accuracy    <       0.00030823 Ry

     iteration #  3     ecut=    30.00 Ry     beta= 0.30
     Davidson diagonalization with overlap
     ethr =  6.42E-07,  avg # of iterations =  4.0

     total cpu time spent up to now is       17.1 secs

     End of self-consistent calculation

          k = 0.0000 0.0000 0.0000 (   585 PWs)   bands (ev):

   -48.4949 -48.3583 -24.8802 -24.7752 -24.6052 -24.5073 -24.4446 -24.3157
    -9.0458  -7.9825  -6.9080  -6.8157   3.5730   3.8268   4.7265   5.1100
     5.1270   6.8889   7.0590   7.6758   8.8175   9.1325   9.3896   9.5087
    11.3807  11.6113  11.7040  11.9983  12.3185

     the Fermi energy is    10.6732 ev

!    total energy              =    -368.92908964 Ry
     Harris-Foulkes estimate   =    -368.92911156 Ry
     estimated scf accuracy    <       0.00002880 Ry

     convergence has been achieved in   3 iterations

     Forces acting on atoms (cartesian axes, Ry/au):

     atom    1 type  1   force =    -0.03336245   -0.00130759   -0.02577980
     atom    2 type  1   force =     0.00712593    0.01297167   -0.00966779
     atom    3 type  2   force =    -0.02647606    0.00802805   -0.03194017
     atom    4 type  2   force =     0.03453940   -0.00307839    0.03129791
     atom    5 type  2   force =    -0.02118963    0.04154718    0.03628811
     atom    6 type  2   force =     0.03936280   -0.05816093   -0.00019826

     Total force =     0.120348     Total SCF correction =     0.029962
     SCF correction compared to forces is large: reduce conv_thr to get better values

     Entering Dynamics:    iteration =    14
                           time      =   0.0140 pico-seconds


ATOMIC_POSITIONS (angstrom)
Ti       0.019311521   0.002297557   0.013995983
Ti       2.266880575   2.292505031   1.475184500
O        3.161092493   3.031671913   0.077580841
O        1.466380729   1.512103628   0.001879273
O        0.825431808   3.830332413   1.445943295
O        3.812099181   0.865134747   1.486392416


     kinetic energy (Ekin) =     0.04816180 Ry
     temperature           =  1013.88511101 K 
     Ekin + Etot (const)   =  -368.88092784 Ry

     Linear momentum :   -0.0000000000   -0.0000000000    0.0000000000

     Writing output data file x0.save

     second order wave-functions extrapolation
     second order charge density extrapolation

     Check: negative/imaginary core charge=   -0.000018    0.000000

     total cpu time spent up to now is       17.6 secs

     Self-consistent Calculation

     iteration #  1     ecut=    30.00 Ry     beta= 0.30
     Davidson diagonalization with overlap
     ethr =  1.00E-06,  avg # of iterations =  4.0

     total cpu time spent up to now is       17.8 secs

     total energy              =    -368.92998856 Ry
     Harris-Foulkes estimate   =    -368.93094050 Ry
     estimated scf accuracy    <       0.00212985 Ry

     iteration #  2     ecut=    30.00 Ry     beta= 0.30
     Davidson diagonalization with overlap
     ethr =  4.44E-06,  avg # of iterations =  4.0

     total cpu time spent up to now is       18.0 secs

     total energy              =    -368.93028300 Ry
     Harris-Foulkes estimate   =    -368.93044630 Ry
     estimated scf accuracy    <       0.00045030 Ry

     iteration #  3     ecut=    30.00 Ry     beta= 0.30
     Davidson diagonalization with overlap
     ethr =  9.38E-07,  avg # of iterations =  3.0

     total cpu time spent up to now is       18.2 secs

     End of self-consistent calculation

          k = 0.0000 0.0000 0.0000 (   585 PWs)   bands (ev):

   -48.4581 -48.3195 -24.8454 -24.7381 -24.5714 -24.4738 -24.4209 -24.2862
    -9.0757  -8.0273  -6.8890  -6.8103   3.5588   3.8027   4.7344   5.0610
     5.0791   6.8611   7.0324   7.6710   8.8124   9.1092   9.3976   9.5073
    11.4356  11.6343  11.7367  12.0667  12.4178

     the Fermi energy is    10.7705 ev

!    total energy              =    -368.93028705 Ry
     Harris-Foulkes estimate   =    -368.93033800 Ry
     estimated scf accuracy    <       0.00006539 Ry

     convergence has been achieved in   3 iterations

     Forces acting on atoms (cartesian axes, Ry/au):

     atom    1 type  1   force =    -0.03292310    0.00189836   -0.02468807
     atom    2 type  1   force =     0.01624475    0.01665298   -0.01451830
     atom    3 type  2   force =    -0.01615350    0.01909402   -0.03544642
     atom    4 type  2   force =     0.01820453   -0.01894359    0.03228349
     atom    5 type  2   force =    -0.00685733    0.02430011    0.04239184
     atom    6 type  2   force =     0.02148464   -0.04300188   -0.00002253

     Total force =     0.103965     Total SCF correction =     0.048320
     SCF correction compared to forces is large: reduce conv_thr to get better values

     Entering Dynamics:    iteration =    15
                           time      =   0.0150 pico-seconds


ATOMIC_POSITIONS (angstrom)
Ti       0.020519594   0.002437667   0.014938904
Ti       2.265476208   2.292678460   1.473803775
O        3.153623431   3.016801741   0.082552846
O        1.474024213   1.512636148   0.002790622
O        0.816450191   3.845756569   1.441172850
O        3.821493663   0.863110174   1.486589359


     kinetic energy (Ekin) =     0.04935300 Ry
     temperature           =  1038.96171560 K 
     Ekin + Etot (const)   =  -368.88093405 Ry

     Linear momentum :    0.0000000000    0.0000000000    0.0000000000

     Writing output data file x0.save

     second order wave-functions extrapolation
     second order charge density extrapolation

     Check: negative/imaginary core charge=   -0.000018    0.000000

     total cpu time spent up to now is       18.6 secs

     Self-consistent Calculation

     iteration #  1     ecut=    30.00 Ry     beta= 0.30
     Davidson diagonalization with overlap
     ethr =  1.00E-06,  avg # of iterations =  5.0

     total cpu time spent up to now is       18.8 secs

     total energy              =    -368.92973771 Ry
     Harris-Foulkes estimate   =    -368.93031394 Ry
     estimated scf accuracy    <       0.00134779 Ry

     iteration #  2     ecut=    30.00 Ry     beta= 0.30
     Davidson diagonalization with overlap
     ethr =  2.81E-06,  avg # of iterations =  2.0

     total cpu time spent up to now is       19.0 secs

     total energy              =    -368.92974244 Ry
     Harris-Foulkes estimate   =    -368.92986814 Ry
     estimated scf accuracy    <       0.00024941 Ry

     iteration #  3     ecut=    30.00 Ry     beta= 0.30
     Davidson diagonalization with overlap
     ethr =  5.20E-07,  avg # of iterations =  2.0

     total cpu time spent up to now is       19.2 secs

     End of self-consistent calculation

          k = 0.0000 0.0000 0.0000 (   585 PWs)   bands (ev):

   -48.4209 -48.2957 -24.8131 -24.7107 -24.5391 -24.4537 -24.3936 -24.2754
    -9.1103  -8.0799  -6.8698  -6.7996   3.5419   3.7746   4.7402   5.0014
     5.0277   6.8331   7.0047   7.6678   8.8073   9.0806   9.4092   9.5145
    11.4852  11.6597  11.7551  12.1312  12.5127

     the Fermi energy is    10.3834 ev

!    total energy              =    -368.92975744 Ry
     Harris-Foulkes estimate   =    -368.92977865 Ry
     estimated scf accuracy    <       0.00002766 Ry

     convergence has been achieved in   3 iterations

     Forces acting on atoms (cartesian axes, Ry/au):

     atom    1 type  1   force =    -0.02932780    0.01164313   -0.03094335
     atom    2 type  1   force =     0.01521992    0.01750937   -0.00560154
     atom    3 type  2   force =    -0.00337227    0.03086683   -0.04045554
     atom    4 type  2   force =     0.00103924   -0.03536972    0.03058242
     atom    5 type  2   force =     0.01134411    0.00417754    0.04703446
     atom    6 type  2   force =     0.00509680   -0.02882715   -0.00061644

     Total force =     0.102600     Total SCF correction =     0.028734
     SCF correction compared to forces is large: reduce conv_thr to get better values

     Entering Dynamics:    iteration =    16
                           time      =   0.0160 pico-seconds


     Andersen thermostat:    1 collisions

ATOMIC_POSITIONS (angstrom)
Ti       0.020574651   0.005600962   0.018061800
Ti       2.264579064   2.291674808   1.471392573
O        3.146530427   3.001142348   0.085896124
O        1.482112157   1.511352425   0.003174716
O        0.808072815   3.859977675   1.436130243
O        3.831395519   0.859370803   1.485775296


     kinetic energy (Ekin) =     0.05393613 Ry
     temperature           =  1135.44415341 K 
     Ekin + Etot (const)   =  -368.87582131 Ry
     Message from routine dynamics:
     Total linear momentum <> 0

     Linear momentum :   -0.3274400012    0.9691613060    0.7655362769

     Writing output data file x0.save

     second order wave-functions extrapolation
     second order charge density extrapolation

     Check: negative/imaginary core charge=   -0.000018    0.000000

     total cpu time spent up to now is       19.6 secs

     Self-consistent Calculation

     iteration #  1     ecut=    30.00 Ry     beta= 0.30
     Davidson diagonalization with overlap
     ethr =  1.00E-06,  avg # of iterations =  4.0

     total cpu time spent up to now is       19.8 secs

     total energy              =    -368.92731007 Ry
     Harris-Foulkes estimate   =    -368.92781017 Ry
     estimated scf accuracy    <       0.00115812 Ry

     iteration #  2     ecut=    30.00 Ry     beta= 0.30
     Davidson diagonalization with overlap
     ethr =  2.41E-06,  avg # of iterations =  2.0

     total cpu time spent up to now is       20.0 secs

     total energy              =    -368.92735702 Ry
     Harris-Foulkes estimate   =    -368.92744580 Ry
     estimated scf accuracy    <       0.00019653 Ry

     iteration #  3     ecut=    30.00 Ry     beta= 0.30
     Davidson diagonalization with overlap
     ethr =  4.09E-07,  avg # of iterations =  2.0

     total cpu time spent up to now is       20.2 secs

     End of self-consistent calculation

          k = 0.0000 0.0000 0.0000 (   585 PWs)   bands (ev):

   -48.3712 -48.2630 -24.7654 -24.6760 -24.4985 -24.4269 -24.3606 -24.2522
    -9.1410  -8.1233  -6.8584  -6.7913   3.5266   3.7468   4.7484   4.9506
     4.9856   6.8022   6.9771   7.6595   8.7991   9.0606   9.4201   9.5138
    11.5430  11.6942  11.7865  12.2011  12.6134

     the Fermi energy is    10.4820 ev

!    total energy              =    -368.92735930 Ry
     Harris-Foulkes estimate   =    -368.92738349 Ry
     estimated scf accuracy    <       0.00003300 Ry

     convergence has been achieved in   3 iterations

     Forces acting on atoms (cartesian axes, Ry/au):

     atom    1 type  1   force =    -0.02737501    0.01756230   -0.02867259
     atom    2 type  1   force =     0.01977552    0.02523389   -0.00618152
     atom    3 type  2   force =     0.00814409    0.04108705   -0.04418975
     atom    4 type  2   force =    -0.01613590   -0.05218269    0.02784978
     atom    5 type  2   force =     0.02877128   -0.01902683    0.05114339
     atom    6 type  2   force =    -0.01317999   -0.01267372    0.00005069

     Total force =     0.120632     Total SCF correction =     0.032235
     SCF correction compared to forces is large: reduce conv_thr to get better values

     Entering Dynamics:    iteration =    17
                           time      =   0.0170 pico-seconds


     Andersen thermostat:    3 collisions

ATOMIC_POSITIONS (angstrom)
Ti       0.019352309   0.008261006   0.019229322
Ti       2.261865269   2.291709366   1.471035150
O        3.142215783   2.999825855   0.085205797
O        1.488814379   1.508665320   0.002183852
O        0.808899698   3.860449512   1.438007772
O        3.839957486   0.854840652   1.483155241


     kinetic energy (Ekin) =     0.01488471 Ry
     temperature           =   313.34768752 K 
     Ekin + Etot (const)   =  -368.91247458 Ry
     Message from routine dynamics:
     Total linear momentum <> 0

     Linear momentum :    0.8680313788    0.4542760505    1.3811542313

     Writing output data file x0.save

     second order wave-functions extrapolation
     second order charge density extrapolation

     Check: negative/imaginary core charge=   -0.000018    0.000000

     total cpu time spent up to now is       20.6 secs

     Self-consistent Calculation

     iteration #  1     ecut=    30.00 Ry     beta= 0.30
     Davidson diagonalization with overlap
     ethr =  1.00E-06,  avg # of iterations =  4.0

     total cpu time spent up to now is       20.8 secs

     total energy              =    -368.92720773 Ry
     Harris-Foulkes estimate   =    -368.92778617 Ry
     estimated scf accuracy    <       0.00134491 Ry

     iteration #  2     ecut=    30.00 Ry     beta= 0.30
     Davidson diagonalization with overlap
     ethr =  2.80E-06,  avg # of iterations =  3.0

     total cpu time spent up to now is       21.0 secs

     total energy              =    -368.92734812 Ry
     Harris-Foulkes estimate   =    -368.92744514 Ry
     estimated scf accuracy    <       0.00027055 Ry

     iteration #  3     ecut=    30.00 Ry     beta= 0.30
     Davidson diagonalization with overlap
     ethr =  5.64E-07,  avg # of iterations =  3.0

     total cpu time spent up to now is       21.2 secs

     End of self-consistent calculation

          k = 0.0000 0.0000 0.0000 (   585 PWs)   bands (ev):

   -48.3653 -48.2587 -24.7615 -24.6701 -24.4930 -24.4233 -24.3541 -24.2531
    -9.1497  -8.1339  -6.8584  -6.7955   3.5241   3.7381   4.7542   4.9412
     4.9633   6.8063   6.9610   7.6548   8.7850   9.0507   9.4238   9.5121
    11.5483  11.7009  11.7896  12.2203  12.6360

     the Fermi energy is    10.5040 ev

!    total energy              =    -368.92734552 Ry
     Harris-Foulkes estimate   =    -368.92738372 Ry
     estimated scf accuracy    <       0.00005870 Ry

     convergence has been achieved in   3 iterations

     Forces acting on atoms (cartesian axes, Ry/au):

     atom    1 type  1   force =    -0.02859024    0.02176781   -0.02843605
     atom    2 type  1   force =     0.00473607    0.03812969    0.00227411
     atom    3 type  2   force =     0.01665173    0.04047060   -0.04710588
     atom    4 type  2   force =    -0.01958230   -0.05912865    0.02537878
     atom    5 type  2   force =     0.04075551   -0.03068027    0.04781417
     atom    6 type  2   force =    -0.01397077   -0.01055918    0.00007487

     Total force =     0.132039     Total SCF correction =     0.041173
     SCF correction compared to forces is large: reduce conv_thr to get better values

     Entering Dynamics:    iteration =    18
                           time      =   0.0180 pico-seconds


     Andersen thermostat:    1 collisions

ATOMIC_POSITIONS (angstrom)
Ti       0.018330269   0.010712005   0.019597676
Ti       2.259524489   2.291619674   1.470037714
O        3.138507800   2.998815017   0.083133277
O        1.492082402   1.507952884   0.007442094
O        0.810706980   3.860123783   1.439974880
O        3.848651300   0.849824921   1.479884548


     kinetic energy (Ekin) =     0.01315084 Ry
     temperature           =   276.84684118 K 
     Ekin + Etot (const)   =  -368.91419468 Ry
     Message from routine dynamics:
     Total linear momentum <> 0

     Linear momentum :   -0.2663808225    0.2460366800    0.4982542617

     Writing output data file x0.save

     second order wave-functions extrapolation
     second order charge density extrapolation

     Check: negative/imaginary core charge=   -0.000018    0.000000

     total cpu time spent up to now is       21.7 secs

     Self-consistent Calculation

     iteration #  1     ecut=    30.00 Ry     beta= 0.30
     Davidson diagonalization with overlap
     ethr =  1.00E-06,  avg # of iterations =  4.0

     total cpu time spent up to now is       21.9 secs

     total energy              =    -368.92780342 Ry
     Harris-Foulkes estimate   =    -368.92794093 Ry
     estimated scf accuracy    <       0.00033491 Ry

     iteration #  2     ecut=    30.00 Ry     beta= 0.30
     Davidson diagonalization with overlap
     ethr =  6.98E-07,  avg # of iterations =  2.0

     total cpu time spent up to now is       22.0 secs

     End of self-consistent calculation

          k = 0.0000 0.0000 0.0000 (   585 PWs)   bands (ev):

   -48.3488 -48.2512 -24.7483 -24.6609 -24.4798 -24.4182 -24.3399 -24.2461
    -9.1555  -8.1391  -6.8597  -6.7996   3.5225   3.7326   4.7586   4.9335
     4.9526   6.8038   6.9516   7.6477   8.7716   9.0416   9.4269   9.5090
    11.5625  11.7140  11.8027  12.2364  12.6625

     the Fermi energy is    10.5301 ev

!    total energy              =    -368.92779039 Ry
     Harris-Foulkes estimate   =    -368.92783636 Ry
     estimated scf accuracy    <       0.00006364 Ry

     convergence has been achieved in   2 iterations

     Forces acting on atoms (cartesian axes, Ry/au):

     atom    1 type  1   force =    -0.03122342    0.02170101   -0.02708348
     atom    2 type  1   force =     0.00012112    0.05120349   -0.00427198
     atom    3 type  2   force =     0.02121449    0.04076115   -0.04304721
     atom    4 type  2   force =    -0.02254607   -0.06488201    0.02264149
     atom    5 type  2   force =     0.04907217   -0.04049720    0.04689757
     atom    6 type  2   force =    -0.01663828   -0.00828645    0.00486362

     Total force =     0.143636     Total SCF correction =     0.044773
     SCF correction compared to forces is large: reduce conv_thr to get better values

     Entering Dynamics:    iteration =    19
                           time      =   0.0190 pico-seconds


ATOMIC_POSITIONS (angstrom)
Ti       0.017146413   0.013275469   0.019825670
Ti       2.257184336   2.291795344   1.469018138
O        3.135128757   2.998436196   0.080393294
O        1.495000839   1.506234428   0.013051401
O        0.813275145   3.859170129   1.442669151
O        3.857087132   0.844680705   1.476689267


     kinetic energy (Ekin) =     0.01351558 Ry
     temperature           =   284.52514310 K 
     Ekin + Etot (const)   =  -368.91427481 Ry

     Linear momentum :    0.0000000000   -0.0000000000    0.0000000000

     Writing output data file x0.save

     second order wave-functions extrapolation
     second order charge density extrapolation

     Check: negative/imaginary core charge=   -0.000018    0.000000

     total cpu time spent up to now is       22.5 secs

     Self-consistent Calculation

     iteration #  1     ecut=    30.00 Ry     beta= 0.30
     Davidson diagonalization with overlap
     ethr =  1.00E-06,  avg # of iterations =  4.0

     total cpu time spent up to now is       22.7 secs

     total energy              =    -368.92871291 Ry
     Harris-Foulkes estimate   =    -368.92887999 Ry
     estimated scf accuracy    <       0.00039251 Ry

     iteration #  2     ecut=    30.00 Ry     beta= 0.30
     Davidson diagonalization with overlap
     ethr =  8.18E-07,  avg # of iterations =  1.0

     total cpu time spent up to now is       22.9 secs

     End of self-consistent calculation

          k = 0.0000 0.0000 0.0000 (   585 PWs)   bands (ev):

   -48.3444 -48.2475 -24.7447 -24.6567 -24.4761 -24.4138 -24.3347 -24.2470
    -9.1604  -8.1431  -6.8613  -6.8065   3.5206   3.7287   4.7624   4.9250
     4.9428   6.8068   6.9418   7.6426   8.7575   9.0321   9.4269   9.5067
    11.5702  11.7208  11.8103  12.2466  12.6790

     the Fermi energy is    10.5462 ev

!    total energy              =    -368.92867473 Ry
     Harris-Foulkes estimate   =    -368.92874017 Ry
     estimated scf accuracy    <       0.00008004 Ry

     convergence has been achieved in   2 iterations

     Forces acting on atoms (cartesian axes, Ry/au):

     atom    1 type  1   force =    -0.03376334    0.02285078   -0.03371388
     atom    2 type  1   force =    -0.01875088    0.06660336    0.00667503
     atom    3 type  2   force =     0.02816454    0.03869676   -0.04117961
     atom    4 type  2   force =    -0.02107843   -0.06922631    0.01493478
     atom    5 type  2   force =     0.06153213   -0.05183019    0.04568425
     atom    6 type  2   force =    -0.01610402   -0.00709440    0.00759943

     Total force =     0.161258     Total SCF correction =     0.058935
     SCF correction compared to forces is large: reduce conv_thr to get better values

     Entering Dynamics:    iteration =    20
                           time      =   0.0200 pico-seconds


ATOMIC_POSITIONS (angstrom)
Ti       0.015787578   0.015957358   0.019878942
Ti       2.254747008   2.292316186   1.468033155
O        3.132186414   2.998657382   0.077014806
O        1.497592447   1.503442591   0.018892277
O        0.816797389   3.857412830   1.446071774
O        3.865273265   0.839426488   1.473611818


     kinetic energy (Ekin) =     0.01444633 Ry
     temperature           =   304.11907819 K 
     Ekin + Etot (const)   =  -368.91422839 Ry

     Linear momentum :   -0.0000000000    0.0000000000    0.0000000000

     Writing output data file x0.save

     second order wave-functions extrapolation
     second order charge density extrapolation

     Check: negative/imaginary core charge=   -0.000018    0.000000

     total cpu time spent up to now is       23.5 secs

     Self-consistent Calculation

     iteration #  1     ecut=    30.00 Ry     beta= 0.30
     Davidson diagonalization with overlap
     ethr =  1.00E-06,  avg # of iterations =  4.0

     total cpu time spent up to now is       23.7 secs

     total energy              =    -368.93014041 Ry
     Harris-Foulkes estimate   =    -368.93136111 Ry
     estimated scf accuracy    <       0.00282707 Ry

     iteration #  2     ecut=    30.00 Ry     beta= 0.30
     Davidson diagonalization with overlap
     ethr =  5.89E-06,  avg # of iterations =  2.0

     total cpu time spent up to now is       23.8 secs

     total energy              =    -368.93011727 Ry
     Harris-Foulkes estimate   =    -368.93039018 Ry
     estimated scf accuracy    <       0.00049450 Ry

     iteration #  3     ecut=    30.00 Ry     beta= 0.30
     Davidson diagonalization with overlap
     ethr =  1.03E-06,  avg # of iterations =  3.0

     total cpu time spent up to now is       24.0 secs

     End of self-consistent calculation

          k = 0.0000 0.0000 0.0000 (   585 PWs)   bands (ev):

   -48.3295 -48.2373 -24.7331 -24.6427 -24.4625 -24.4084 -24.3223 -24.2377
    -9.1651  -8.1453  -6.8643  -6.8153   3.5179   3.7253   4.7655   4.9206
     4.9388   6.8061   6.9348   7.6360   8.7426   9.0211   9.4226   9.5003
    11.5846  11.7313  11.8293  12.2586  12.6989

     the Fermi energy is    10.5658 ev

!    total energy              =    -368.93020115 Ry
     Harris-Foulkes estimate   =    -368.93022660 Ry
     estimated scf accuracy    <       0.00003074 Ry

     convergence has been achieved in   3 iterations

     Forces acting on atoms (cartesian axes, Ry/au):

     atom    1 type  1   force =    -0.03483117    0.02196552   -0.03201836
     atom    2 type  1   force =    -0.02402472    0.07911209   -0.00006176
     atom    3 type  2   force =     0.03057998    0.03543218   -0.03573713
     atom    4 type  2   force =    -0.02214289   -0.07275822    0.01227232
     atom    5 type  2   force =     0.06647265   -0.05973146    0.04348502
     atom    6 type  2   force =    -0.01605385   -0.00402012    0.01205990

     Total force =     0.171044     Total SCF correction =     0.028439
     SCF correction compared to forces is large: reduce conv_thr to get better values

     Entering Dynamics:    iteration =    21
                           time      =   0.0210 pico-seconds


     Andersen thermostat:    1 collisions

ATOMIC_POSITIONS (angstrom)
Ti       0.014785920   0.018853476   0.020240852
Ti       2.252722860   2.293347419   1.467522426
O        3.130255915   2.999528352   0.073556774
O        1.500378411   1.499623006   0.025398013
O        0.816519858   3.853827457   1.445885201
O        3.873748166   0.834210332   1.471195936


     kinetic energy (Ekin) =     0.01439582 Ry
     temperature           =   303.05564769 K 
     Ekin + Etot (const)   =  -368.91580533 Ry
     Message from routine dynamics:
     Total linear momentum <> 0

     Linear momentum :   -0.4110248497   -0.0767440610   -0.3627777433

     Writing output data file x0.save

     second order wave-functions extrapolation
     second order charge density extrapolation

     Check: negative/imaginary core charge=   -0.000018    0.000000

     total cpu time spent up to now is       24.5 secs

     Self-consistent Calculation

     iteration #  1     ecut=    30.00 Ry     beta= 0.30
     Davidson diagonalization with overlap
     ethr =  1.00E-06,  avg # of iterations =  4.0

     total cpu time spent up to now is       24.7 secs

     total energy              =    -368.93135139 Ry
     Harris-Foulkes estimate   =    -368.93152430 Ry
     estimated scf accuracy    <       0.00038090 Ry

     iteration #  2     ecut=    30.00 Ry     beta= 0.30
     Davidson diagonalization with overlap
     ethr =  7.94E-07,  avg # of iterations =  4.0

     total cpu time spent up to now is       24.9 secs

     End of self-consistent calculation

          k = 0.0000 0.0000 0.0000 (   585 PWs)   bands (ev):

   -48.3136 -48.2234 -24.7191 -24.6282 -24.4489 -24.3958 -24.3094 -24.2262
    -9.1734  -8.1547  -6.8655  -6.8251   3.5144   3.7202   4.7654   4.9149
     4.9287   6.8100   6.9181   7.6298   8.7272   9.0067   9.4170   9.4950
    11.6037  11.7437  11.8479  12.2723  12.7215

     the Fermi energy is    10.5882 ev

!    total energy              =    -368.93138176 Ry
     Harris-Foulkes estimate   =    -368.93146766 Ry
     estimated scf accuracy    <       0.00009873 Ry

     convergence has been achieved in   2 iterations

     Forces acting on atoms (cartesian axes, Ry/au):

     atom    1 type  1   force =    -0.03248346    0.02618835   -0.03438568
     atom    2 type  1   force =    -0.03521207    0.08990749    0.00585829
     atom    3 type  2   force =     0.03274352    0.03034947   -0.03302122
     atom    4 type  2   force =    -0.02179629   -0.07520649    0.00529204
     atom    5 type  2   force =     0.07573470   -0.06942810    0.04293587
     atom    6 type  2   force =    -0.01898639   -0.00181074    0.01332070

     Total force =     0.185646     Total SCF correction =     0.031539
     SCF correction compared to forces is large: reduce conv_thr to get better values

     Entering Dynamics:    iteration =    22
                           time      =   0.0220 pico-seconds


ATOMIC_POSITIONS (angstrom)
Ti       0.013615916   0.021885316   0.020424558
Ti       2.250516225   2.294844598   1.467042057
O        3.128833116   3.000869902   0.069586735
O        1.502826414   1.494637315   0.031985804
O        0.817416621   3.849165577   1.446364365
O        3.881928676   0.828966099   1.468986596


     kinetic energy (Ekin) =     0.01554128 Ry
     temperature           =   327.16953483 K 
     Ekin + Etot (const)   =  -368.91584048 Ry

     Linear momentum :    0.0000000000    0.0000000000    0.0000000000

     Writing output data file x0.save

     second order wave-functions extrapolation
     second order charge density extrapolation

     Check: negative/imaginary core charge=   -0.000018    0.000000

     total cpu time spent up to now is       25.3 secs

     Self-consistent Calculation

     iteration #  1     ecut=    30.00 Ry     beta= 0.30
     Davidson diagonalization with overlap
     ethr =  1.00E-06,  avg # of iterations =  5.0

     total cpu time spent up to now is       25.5 secs

     total energy              =    -368.93213232 Ry
     Harris-Foulkes estimate   =    -368.93430477 Ry
     estimated scf accuracy    <       0.00465319 Ry

     iteration #  2     ecut=    30.00 Ry     beta= 0.30
     Davidson diagonalization with overlap
     ethr =  9.69E-06,  avg # of iterations =  4.0

     total cpu time spent up to now is       25.7 secs

     total energy              =    -368.93327936 Ry
     Harris-Foulkes estimate   =    -368.93372030 Ry
     estimated scf accuracy    <       0.00136742 Ry

     iteration #  3     ecut=    30.00 Ry     beta= 0.30
     Davidson diagonalization with overlap
     ethr =  2.85E-06,  avg # of iterations =  3.0

     total cpu time spent up to now is       25.9 secs

     End of self-consistent calculation

          k = 0.0000 0.0000 0.0000 (   585 PWs)   bands (ev):

   -48.2998 -48.2051 -24.7081 -24.6081 -24.4345 -24.3821 -24.2988 -24.2099
    -9.1794  -8.1620  -6.8665  -6.8320   3.5120   3.7172   4.7650   4.9071
     4.9310   6.8136   6.9046   7.6253   8.7139   8.9981   9.4065   9.4889
    11.6236  11.7529  11.8741  12.2846  12.7422

     the Fermi energy is    10.1274 ev

!    total energy              =    -368.93345581 Ry
     Harris-Foulkes estimate   =    -368.93346396 Ry
     estimated scf accuracy    <       0.00000979 Ry

     convergence has been achieved in   3 iterations

     Forces acting on atoms (cartesian axes, Ry/au):

     atom    1 type  1   force =    -0.03480204    0.02879825   -0.03561416
     atom    2 type  1   force =    -0.04568687    0.10573640    0.00694299
     atom    3 type  2   force =     0.03332278    0.02314938   -0.02909223
     atom    4 type  2   force =    -0.01806639   -0.07569671   -0.00098630
     atom    5 type  2   force =     0.08414493   -0.07920517    0.04336712
     atom    6 type  2   force =    -0.01891240   -0.00278215    0.01538258

     Total force =     0.202512     Total SCF correction =     0.013913

     Entering Dynamics:    iteration =    23
                           time      =   0.0230 pico-seconds


     Andersen thermostat:    1 collisions

ATOMIC_POSITIONS (angstrom)
Ti       0.013431320   0.024710132   0.019623812
Ti       2.249238587   2.296533485   1.465797787
O        3.129092767   3.002214121   0.064365727
O        1.506160060   1.488121649   0.037758420
O        0.820783852   3.842919320   1.446716069
O        3.879342968   0.826879370   1.474201714


     kinetic energy (Ekin) =     0.01379967 Ry
     temperature           =   290.50574795 K 
     Ekin + Etot (const)   =  -368.91965614 Ry
     Message from routine dynamics:
     Total linear momentum <> 0

     Linear momentum :   -0.8911478611    0.2723433513    0.6114538257

     Writing output data file x0.save

     second order wave-functions extrapolation
     second order charge density extrapolation

     Check: negative/imaginary core charge=   -0.000018    0.000000

     total cpu time spent up to now is       26.4 secs

     Self-consistent Calculation

     iteration #  1     ecut=    30.00 Ry     beta= 0.30
     Davidson diagonalization with overlap
     ethr =  1.00E-06,  avg # of iterations =  5.0

     total cpu time spent up to now is       26.6 secs

     total energy              =    -368.92653376 Ry
     Harris-Foulkes estimate   =    -368.94443301 Ry
     estimated scf accuracy    <       0.03857249 Ry

     iteration #  2     ecut=    30.00 Ry     beta= 0.30
     Davidson diagonalization with overlap
     ethr =  8.04E-05,  avg # of iterations =  4.0

     total cpu time spent up to now is       26.8 secs

     total energy              =    -368.93547890 Ry
     Harris-Foulkes estimate   =    -368.93871149 Ry
     estimated scf accuracy    <       0.00976329 Ry

     iteration #  3     ecut=    30.00 Ry     beta= 0.30
     Davidson diagonalization with overlap
     ethr =  2.03E-05,  avg # of iterations =  3.0

     total cpu time spent up to now is       26.9 secs

     total energy              =    -368.93689812 Ry
     Harris-Foulkes estimate   =    -368.93696006 Ry
     estimated scf accuracy    <       0.00012330 Ry

     iteration #  4     ecut=    30.00 Ry     beta= 0.30
     Davidson diagonalization with overlap
     ethr =  2.57E-07,  avg # of iterations =  5.0

     total cpu time spent up to now is       27.1 secs

[...]

     Forces acting on atoms (cartesian axes, Ry/au):

     atom    1 type  1   force =     0.01153976   -0.01576022   -0.00813764
     atom    2 type  1   force =     0.06342225    0.02373513   -0.00911029
     atom    3 type  2   force =    -0.10508504   -0.07672930    0.01514107
     atom    4 type  2   force =    -0.00578734    0.04863253   -0.01021870
     atom    5 type  2   force =    -0.00900823    0.01276444    0.00883974
     atom    6 type  2   force =     0.04491860    0.00735742    0.00348582

     Total force =     0.164879     Total SCF correction =     0.013119

     Entering Dynamics:    iteration =    95
                           time      =   0.0950 pico-seconds


     Andersen thermostat:    2 collisions

ATOMIC_POSITIONS (angstrom)
Ti       0.072028017   0.202245061   0.008054155
Ti       2.184368188   2.444836288   1.497199841
O        3.145615717   2.931957831  -0.021148637
O        1.706658134   1.142373035   0.010473362
O        0.716512789   3.534381167   1.474421343
O        3.785363135   0.576556828   1.499959823


     kinetic energy (Ekin) =     0.01072532 Ry
     temperature           =   225.78567500 K 
     Ekin + Etot (const)   =  -369.07077879 Ry
     Message from routine dynamics:
     Total linear momentum <> 0

     Linear momentum :   -0.2725862103    0.8840185423   -0.6416587803

     Writing output data file x0.save

     second order wave-functions extrapolation
     second order charge density extrapolation

     Check: negative/imaginary core charge=   -0.000018    0.000000

     total cpu time spent up to now is      104.2 secs

     Self-consistent Calculation

     iteration #  1     ecut=    30.00 Ry     beta= 0.30
     Davidson diagonalization with overlap
     ethr =  1.00E-06,  avg # of iterations =  5.0

     total cpu time spent up to now is      104.4 secs

     total energy              =    -369.08142528 Ry
     Harris-Foulkes estimate   =    -369.08379156 Ry
     estimated scf accuracy    <       0.00505450 Ry

     iteration #  2     ecut=    30.00 Ry     beta= 0.30
     Davidson diagonalization with overlap
     ethr =  1.05E-05,  avg # of iterations =  4.0

     total cpu time spent up to now is      104.6 secs

     total energy              =    -369.08259295 Ry
     Harris-Foulkes estimate   =    -369.08331311 Ry
     estimated scf accuracy    <       0.00242328 Ry

     iteration #  3     ecut=    30.00 Ry     beta= 0.30
     Davidson diagonalization with overlap
     ethr =  5.05E-06,  avg # of iterations =  4.0

     total cpu time spent up to now is      104.8 secs

     End of self-consistent calculation

          k = 0.0000 0.0000 0.0000 (   585 PWs)   bands (ev):

   -47.5567 -47.3017 -23.9615 -23.8955 -23.6801 -23.6430 -23.6124 -23.2916
    -9.4202  -8.1762  -7.2453  -7.0416   3.5905   4.2040   4.9424   5.0595
     5.7283   6.6170   6.7998   7.5656   7.6573   8.1394   8.4652   9.2333
    12.3852  12.4548  12.9390  13.2284  13.9340

     the Fermi energy is    10.3289 ev

!    total energy              =    -369.08284160 Ry
     Harris-Foulkes estimate   =    -369.08288136 Ry
     estimated scf accuracy    <       0.00006204 Ry

     convergence has been achieved in   3 iterations

     Forces acting on atoms (cartesian axes, Ry/au):

     atom    1 type  1   force =     0.01696783   -0.02241189   -0.00378898
     atom    2 type  1   force =     0.06304141    0.02279519   -0.01317585
     atom    3 type  2   force =    -0.09716961   -0.06945082    0.01788839
     atom    4 type  2   force =    -0.01288398    0.04321086   -0.00941796
     atom    5 type  2   force =    -0.01415539    0.02005550    0.00860266
     atom    6 type  2   force =     0.04419974    0.00580116   -0.00010826

     Total force =     0.157617     Total SCF correction =     0.026038
     SCF correction compared to forces is large: reduce conv_thr to get better values

     Entering Dynamics:    iteration =    96
                           time      =   0.0960 pico-seconds


ATOMIC_POSITIONS (angstrom)
Ti       0.070945995   0.204067443   0.008012976
Ti       2.185432103   2.444604992   1.497289872
O        3.139216310   2.927088934  -0.024230113
O        1.708804491   1.145667237   0.009811318
O        0.718903640   3.527061442   1.473681976
O        3.787279510   0.580690917   1.504296549


     kinetic energy (Ekin) =     0.01176367 Ry
     temperature           =   247.64464700 K 
     Ekin + Etot (const)   =  -369.07107793 Ry

     Linear momentum :   -0.0000000000   -0.0000000000    0.0000000000

     Writing output data file x0.save

     second order wave-functions extrapolation
     second order charge density extrapolation

     Check: negative/imaginary core charge=   -0.000018    0.000000

     total cpu time spent up to now is      105.3 secs

     Self-consistent Calculation

     iteration #  1     ecut=    30.00 Ry     beta= 0.30
     Davidson diagonalization with overlap
     ethr =  1.00E-06,  avg # of iterations =  5.0

     total cpu time spent up to now is      105.5 secs

     total energy              =    -369.08298713 Ry
     Harris-Foulkes estimate   =    -369.08531316 Ry
     estimated scf accuracy    <       0.00495506 Ry

     iteration #  2     ecut=    30.00 Ry     beta= 0.30
     Davidson diagonalization with overlap
     ethr =  1.03E-05,  avg # of iterations =  4.0

     total cpu time spent up to now is      105.7 secs

     total energy              =    -369.08414508 Ry
     Harris-Foulkes estimate   =    -369.08486732 Ry
     estimated scf accuracy    <       0.00240514 Ry

     iteration #  3     ecut=    30.00 Ry     beta= 0.30
     Davidson diagonalization with overlap
     ethr =  5.01E-06,  avg # of iterations =  4.0

     total cpu time spent up to now is      105.8 secs

     End of self-consistent calculation

          k = 0.0000 0.0000 0.0000 (   585 PWs)   bands (ev):

   -47.5795 -47.2583 -23.9812 -23.9074 -23.6433 -23.6356 -23.6154 -23.2542
    -9.4297  -8.1984  -7.2320  -7.0339   3.5852   4.1927   4.9390   5.0371
     5.7038   6.6224   6.7993   7.5682   7.6820   8.1167   8.4633   9.2380
    12.3955  12.4449  12.9757  13.2269  13.9613

     the Fermi energy is    10.3531 ev

!    total energy              =    -369.08441145 Ry
     Harris-Foulkes estimate   =    -369.08443885 Ry
     estimated scf accuracy    <       0.00003238 Ry

     convergence has been achieved in   3 iterations

     Forces acting on atoms (cartesian axes, Ry/au):

     atom    1 type  1   force =     0.02275291   -0.02018893   -0.00293795
     atom    2 type  1   force =     0.05639241    0.01969795   -0.01298988
     atom    3 type  2   force =    -0.08683501   -0.06276141    0.01982075
     atom    4 type  2   force =    -0.01816681    0.03389944   -0.00907594
     atom    5 type  2   force =    -0.02115192    0.02636852    0.00827355
     atom    6 type  2   force =     0.04700842    0.00298444   -0.00309053

     Total force =     0.146778     Total SCF correction =     0.017790
     SCF correction compared to forces is large: reduce conv_thr to get better values

     Entering Dynamics:    iteration =    97
                           time      =   0.0970 pico-seconds


     Andersen thermostat:    1 collisions

ATOMIC_POSITIONS (angstrom)
Ti       0.069888716   0.206662298   0.007788153
Ti       2.186695099   2.445352881   1.497144165
O        3.131377320   2.922124000  -0.027172680
O        1.711506212   1.141607411   0.010521577
O        0.720873348   3.521027672   1.472902475
O        3.789831594   0.585748380   1.508416937


     kinetic energy (Ekin) =     0.01413272 Ry
     temperature           =   297.51704853 K 
     Ekin + Etot (const)   =  -369.07027873 Ry
     Message from routine dynamics:
     Total linear momentum <> 0

     Linear momentum :    0.0712244992   -0.6704815227    0.1287439275

     Writing output data file x0.save

     second order wave-functions extrapolation
     second order charge density extrapolation

     Check: negative/imaginary core charge=   -0.000018    0.000000

     total cpu time spent up to now is      106.3 secs

     Self-consistent Calculation

     iteration #  1     ecut=    30.00 Ry     beta= 0.30
     Davidson diagonalization with overlap
     ethr =  1.00E-06,  avg # of iterations =  4.0

     total cpu time spent up to now is      106.5 secs

     total energy              =    -369.08522619 Ry
     Harris-Foulkes estimate   =    -369.08573334 Ry
     estimated scf accuracy    <       0.00110611 Ry

     iteration #  2     ecut=    30.00 Ry     beta= 0.30
     Davidson diagonalization with overlap
     ethr =  2.30E-06,  avg # of iterations =  4.0

     total cpu time spent up to now is      106.7 secs

     total energy              =    -369.08545823 Ry
     Harris-Foulkes estimate   =    -369.08559028 Ry
     estimated scf accuracy    <       0.00042632 Ry

     iteration #  3     ecut=    30.00 Ry     beta= 0.30
     Davidson diagonalization with overlap
     ethr =  8.88E-07,  avg # of iterations =  3.0

     total cpu time spent up to now is      106.9 secs

     End of self-consistent calculation

          k = 0.0000 0.0000 0.0000 (   585 PWs)   bands (ev):

   -47.5941 -47.2426 -23.9922 -23.9183 -23.6550 -23.6361 -23.5986 -23.2439
    -9.4443  -8.2278  -7.2246  -7.0358   3.5750   4.1797   4.9259   5.0139
     5.6763   6.6260   6.7895   7.5728   7.7031   8.0800   8.4461   9.2245
    12.4008  12.4343  13.0098  13.2288  13.9687

     the Fermi energy is    10.3591 ev

!    total energy              =    -369.08550386 Ry
     Harris-Foulkes estimate   =    -369.08551292 Ry
     estimated scf accuracy    <       0.00001555 Ry

     convergence has been achieved in   3 iterations

     Forces acting on atoms (cartesian axes, Ry/au):

     atom    1 type  1   force =     0.02696223   -0.02311962    0.00111818
     atom    2 type  1   force =     0.05180530    0.01258072   -0.01674836
     atom    3 type  2   force =    -0.07547591   -0.05383772    0.02268897
     atom    4 type  2   force =    -0.02274366    0.03152624   -0.00954353
     atom    5 type  2   force =    -0.02618036    0.03164588    0.00862647
     atom    6 type  2   force =     0.04563238    0.00120449   -0.00614174

     Total force =     0.137769     Total SCF correction =     0.014508
     SCF correction compared to forces is large: reduce conv_thr to get better values

     Entering Dynamics:    iteration =    98
                           time      =   0.0980 pico-seconds


ATOMIC_POSITIONS (angstrom)
Ti       0.068971168   0.209137335   0.007569125
Ti       2.188226574   2.446165969   1.496911659
O        3.122368048   2.916324291  -0.029763445
O        1.713855284   1.138036410   0.011083860
O        0.722437121   3.515484583   1.472256731
O        3.793091226   0.590824520   1.512442095


     kinetic energy (Ekin) =     0.01504123 Ry
     temperature           =   316.64251718 K 
     Ekin + Etot (const)   =  -369.07046263 Ry

     Linear momentum :    0.0000000000   -0.0000000000   -0.0000000000

     Writing output data file x0.save

     second order wave-functions extrapolation
     second order charge density extrapolation

     Check: negative/imaginary core charge=   -0.000018    0.000000

     total cpu time spent up to now is      107.4 secs

     Self-consistent Calculation

     iteration #  1     ecut=    30.00 Ry     beta= 0.30
     Davidson diagonalization with overlap
     ethr =  1.00E-06,  avg # of iterations =  4.0

     total cpu time spent up to now is      107.6 secs

     total energy              =    -369.08654347 Ry
     Harris-Foulkes estimate   =    -369.08667710 Ry
     estimated scf accuracy    <       0.00029135 Ry

     iteration #  2     ecut=    30.00 Ry     beta= 0.30
     Davidson diagonalization with overlap
     ethr =  6.07E-07,  avg # of iterations =  3.0

     total cpu time spent up to now is      107.8 secs

     End of self-consistent calculation

          k = 0.0000 0.0000 0.0000 (   585 PWs)   bands (ev):

   -47.5823 -47.2150 -23.9788 -23.9034 -23.6498 -23.6125 -23.5748 -23.2286
    -9.4662  -8.2704  -7.2135  -7.0365   3.5609   4.1577   4.9116   4.9897
     5.6367   6.6261   6.7806   7.5804   7.7271   8.0410   8.4294   9.2146
    12.4179  12.4395  13.0555  13.2464  13.9864

     the Fermi energy is    10.3764 ev

!    total energy              =    -369.08655948 Ry
     Harris-Foulkes estimate   =    -369.08663160 Ry
     estimated scf accuracy    <       0.00008060 Ry

     convergence has been achieved in   2 iterations

     Forces acting on atoms (cartesian axes, Ry/au):

     atom    1 type  1   force =     0.03069040   -0.02152340    0.00275099
     atom    2 type  1   force =     0.04375896    0.00558562   -0.01644289
     atom    3 type  2   force =    -0.06415453   -0.04513466    0.02441409
     atom    4 type  2   force =    -0.02499494    0.02714423   -0.00990192
     atom    5 type  2   force =    -0.02918796    0.03486035    0.00861912
     atom    6 type  2   force =     0.04388807   -0.00093214   -0.00943938

     Total force =     0.126473     Total SCF correction =     0.027795
     SCF correction compared to forces is large: reduce conv_thr to get better values

     Entering Dynamics:    iteration =    99
                           time      =   0.0990 pico-seconds


ATOMIC_POSITIONS (angstrom)
Ti       0.068212673   0.211500827   0.007364354
Ti       2.189984831   2.447008005   1.496593939
O        3.112364036   2.909824753  -0.031975661
O        1.715816800   1.134886292   0.011492610
O        0.723548323   3.510482017   1.471744629
O        3.797031358   0.595886207   1.516320892


     kinetic energy (Ekin) =     0.01611501 Ry
     temperature           =   339.24741007 K 
     Ekin + Etot (const)   =  -369.07044448 Ry

     Linear momentum :   -0.0000000000    0.0000000000    0.0000000000

     Writing output data file x0.save

     second order wave-functions extrapolation
     second order charge density extrapolation

     Check: negative/imaginary core charge=   -0.000018    0.000000

     total cpu time spent up to now is      108.4 secs

     Self-consistent Calculation

     iteration #  1     ecut=    30.00 Ry     beta= 0.30
     Davidson diagonalization with overlap
     ethr =  1.00E-06,  avg # of iterations =  5.0

     total cpu time spent up to now is      108.6 secs

     total energy              =    -369.08433607 Ry
     Harris-Foulkes estimate   =    -369.08943128 Ry
     estimated scf accuracy    <       0.01081380 Ry

     iteration #  2     ecut=    30.00 Ry     beta= 0.30
     Davidson diagonalization with overlap
     ethr =  2.25E-05,  avg # of iterations =  4.0

     total cpu time spent up to now is      108.8 secs

     total energy              =    -369.08696943 Ry
     Harris-Foulkes estimate   =    -369.08846612 Ry
     estimated scf accuracy    <       0.00493435 Ry

     iteration #  3     ecut=    30.00 Ry     beta= 0.30
     Davidson diagonalization with overlap
     ethr =  1.03E-05,  avg # of iterations =  4.0

     total cpu time spent up to now is      109.0 secs

     End of self-consistent calculation

          k = 0.0000 0.0000 0.0000 (   585 PWs)   bands (ev):

   -47.6034 -47.1903 -23.9990 -23.9206 -23.6725 -23.5972 -23.5533 -23.2081
    -9.4764  -8.3008  -7.1998  -7.0328   3.5545   4.1430   4.9003   4.9665
     5.6018   6.6341   6.7726   7.5921   7.7475   8.0110   8.4197   9.2089
    12.4139  12.4338  13.0974  13.2597  13.9988

     the Fermi energy is    10.3868 ev

!    total energy              =    -369.08755413 Ry
     Harris-Foulkes estimate   =    -369.08759906 Ry
     estimated scf accuracy    <       0.00005291 Ry

     convergence has been achieved in   3 iterations

     Forces acting on atoms (cartesian axes, Ry/au):

     atom    1 type  1   force =     0.03980690   -0.02351971    0.00665696
     atom    2 type  1   force =     0.03671150   -0.00325177   -0.01968408
     atom    3 type  2   force =    -0.05400492   -0.03563174    0.02559425
     atom    4 type  2   force =    -0.03004164    0.02423516   -0.00949938
     atom    5 type  2   force =    -0.03342597    0.03946997    0.00950623
     atom    6 type  2   force =     0.04095412   -0.00130192   -0.01257399

     Total force =     0.122277     Total SCF correction =     0.022036
     SCF correction compared to forces is large: reduce conv_thr to get better values

     Entering Dynamics:    iteration =   100
                           time      =   0.1000 pico-seconds


ATOMIC_POSITIONS (angstrom)
Ti       0.067660478   0.213742428   0.007194083
Ti       2.191933344   2.447833188   1.496174205
O        3.101522657   2.902772731  -0.033791028
O        1.717312510   1.132111948   0.011754068
O        0.724141243   3.506091447   1.471379926
O        3.801606500   0.600927707   1.520004725


     kinetic energy (Ekin) =     0.01714850 Ry
     temperature           =   361.00408650 K 
     Ekin + Etot (const)   =  -369.07040563 Ry

     Linear momentum :   -0.0000000000    0.0000000000   -0.0000000000

     The maximum number of steps has been reached.

     End of molecular dynamics calculation

     diffusion coefficients :
     atom     1   D =       0.00000839 cm^2/s
     atom     2   D =       0.00000555 cm^2/s
     atom     3   D =       0.00001708 cm^2/s
     atom     4   D =       0.00002872 cm^2/s
     atom     5   D =       0.00001196 cm^2/s
     atom     6   D =       0.00001660 cm^2/s

     < D > =       0.00001472 cm^2/s

     Writing output data file x0.save
 
     init_run     :      0.88s CPU      0.90s WALL (       1 calls)
     electrons    :     51.96s CPU     58.37s WALL (     100 calls)
     update_pot   :     19.20s CPU     20.03s WALL (      99 calls)
     forces       :     19.62s CPU     20.61s WALL (     100 calls)

     Called by init_run:
     wfcinit      :      0.01s CPU      0.01s WALL (       1 calls)
     potinit      :      0.07s CPU      0.08s WALL (       1 calls)

     Called by electrons:
     c_bands      :     10.37s CPU     10.52s WALL (     305 calls)
     sum_band     :     18.53s CPU     21.58s WALL (     305 calls)
     v_of_rho     :     13.63s CPU     13.66s WALL (     405 calls)
     newd         :     14.51s CPU     18.40s WALL (     405 calls)
     mix_rho      :      0.79s CPU      0.79s WALL (     305 calls)

     Called by c_bands:
     init_us_2    :      0.18s CPU      0.20s WALL (     709 calls)
     regterg      :      9.72s CPU      9.81s WALL (     305 calls)

     Called by sum_band:
     sum_band:bec :      0.00s CPU      0.00s WALL (     305 calls)
     addusdens    :     15.47s CPU     18.49s WALL (     305 calls)

     Called by *egterg:
     h_psi        :      7.21s CPU      7.27s WALL (    1449 calls)
     s_psi        :      0.18s CPU      0.19s WALL (    1547 calls)
     g_psi        :      0.07s CPU      0.08s WALL (    1143 calls)
     rdiaghg      :      1.51s CPU      1.52s WALL (    1349 calls)

     Called by h_psi:
     h_psi:pot    :      7.17s CPU      7.24s WALL (    1449 calls)
     h_psi:calbec :      0.15s CPU      0.15s WALL (    1449 calls)
     vloc_psi     :      6.84s CPU      6.91s WALL (    1449 calls)
     add_vuspsi   :      0.17s CPU      0.17s WALL (    1449 calls)

     General routines
     calbec       :      0.26s CPU      0.28s WALL (    2350 calls)
     fft          :     11.19s CPU     11.23s WALL (    7279 calls)
     ffts         :      0.30s CPU      0.30s WALL (     710 calls)
     fftw         :      6.72s CPU      6.79s WALL (   32743 calls)
     interpolate  :      1.48s CPU      1.48s WALL (     710 calls)
     davcio       :      0.02s CPU      0.05s WALL (     392 calls)
 
     Parallel routines
 
     PWSCF        :  1m38.66s CPU     1m49.24s WALL

 
   This run was terminated on:  14:38:27  26Apr2020            

=------------------------------------------------------------------------------=
   JOB DONE.
=------------------------------------------------------------------------------=
