
     Program PROJWFC v.6.7MaX starts on 24May2021 at 17:19:30 

     This program is part of the open-source Quantum ESPRESSO suite
     for quantum simulation of materials; please cite
         "P. Giannozzi et al., J. Phys.:Condens. Matter 21 395502 (2009);
         "P. Giannozzi et al., J. Phys.:Condens. Matter 29 465901 (2017);
          URL http://www.quantum-espresso.org", 
     in publications or presentations arising from this work. More details at
     http://www.quantum-espresso.org/quote

     Parallel version (MPI), running on    12 processors

     MPI processes distributed on     1 nodes
     R & G space division:  proc/nbgrp/npool/nimage =      12

     Reading xml data from directory:

     ./x.save/
     file Cd.pbe-dn-rrkjus_psl.0.3.1.UPF: wavefunction(s)  4D renormalized

     IMPORTANT: XC functional enforced from input :
     Exchange-correlation= PBE
                           (   1   4   3   4   0   0   0)
     Any further DFT definition will be discarded
     Please, verify this is what you really want


     Parallelization info
     --------------------
     sticks:   dense  smooth     PW     G-vecs:    dense   smooth      PW
     Min         107     107     26                 5686     5686     706
     Max         108     108     27                 5693     5693     715
     Sum        1291    1291    313                68271    68271    8491


     Check: negative core charge=   -0.000001

     Gaussian broadening (read from file): ngauss,degauss=   0    0.005000


     Calling projwave .... 

  Problem Sizes 
  natomwfc =           26
  nbnd     =           40
  nkstot   =            2
  npwx     =          708
  nkb      =           52


     Atomic states used for projection
     (read from pseudopotential files):

     state #   1: atom   1 (Cd ), wfc  1 (l=0 m= 1)
     state #   2: atom   1 (Cd ), wfc  2 (l=1 m= 1)
     state #   3: atom   1 (Cd ), wfc  2 (l=1 m= 2)
     state #   4: atom   1 (Cd ), wfc  2 (l=1 m= 3)
     state #   5: atom   1 (Cd ), wfc  3 (l=2 m= 1)
     state #   6: atom   1 (Cd ), wfc  3 (l=2 m= 2)
     state #   7: atom   1 (Cd ), wfc  3 (l=2 m= 3)
     state #   8: atom   1 (Cd ), wfc  3 (l=2 m= 4)
     state #   9: atom   1 (Cd ), wfc  3 (l=2 m= 5)
     state #  10: atom   2 (Cd ), wfc  1 (l=0 m= 1)
     state #  11: atom   2 (Cd ), wfc  2 (l=1 m= 1)
     state #  12: atom   2 (Cd ), wfc  2 (l=1 m= 2)
     state #  13: atom   2 (Cd ), wfc  2 (l=1 m= 3)
     state #  14: atom   2 (Cd ), wfc  3 (l=2 m= 1)
     state #  15: atom   2 (Cd ), wfc  3 (l=2 m= 2)
     state #  16: atom   2 (Cd ), wfc  3 (l=2 m= 3)
     state #  17: atom   2 (Cd ), wfc  3 (l=2 m= 4)
     state #  18: atom   2 (Cd ), wfc  3 (l=2 m= 5)
     state #  19: atom   3 (Se ), wfc  1 (l=0 m= 1)
     state #  20: atom   3 (Se ), wfc  2 (l=1 m= 1)
     state #  21: atom   3 (Se ), wfc  2 (l=1 m= 2)
     state #  22: atom   3 (Se ), wfc  2 (l=1 m= 3)
     state #  23: atom   4 (Se ), wfc  1 (l=0 m= 1)
     state #  24: atom   4 (Se ), wfc  2 (l=1 m= 1)
     state #  25: atom   4 (Se ), wfc  2 (l=1 m= 2)
     state #  26: atom   4 (Se ), wfc  2 (l=1 m= 3)

 k =   0.0000000000  0.0000000000  0.0000000000
==== e(   1) =   -10.00963 eV ==== 
     psi = 0.431*[#  23]+0.423*[#  19]+0.061*[#  10]+0.060*[#   1]+0.012*[#  14]
          +0.011*[#   5]
    |psi|^2 = 0.999
==== e(   2) =    -9.85028 eV ==== 
     psi = 0.397*[#  19]+0.388*[#  23]+0.091*[#  11]+0.091*[#   2]+0.016*[#   5]
          +0.016*[#  14]
    |psi|^2 = 0.999
==== e(   3) =    -5.48293 eV ==== 
     psi = 0.477*[#  14]+0.450*[#   5]+0.023*[#  24]+0.022*[#  20]+0.009*[#  23]
          +0.008*[#  19]+0.004*[#   1]+0.004*[#  10]
    |psi|^2 = 0.999
==== e(   4) =    -5.41424 eV ==== 
     psi = 0.385*[#  15]+0.339*[#   6]+0.074*[#  18]+0.065*[#   9]+0.050*[#  16]
          +0.045*[#   7]+0.010*[#  21]+0.010*[#  25]+0.010*[#  17]+0.009*[#   8]
          +0.001*[#  22]+0.001*[#  26]
    |psi|^2 = 0.999
==== e(   5) =    -5.40665 eV ==== 
     psi = 0.388*[#  16]+0.338*[#   7]+0.074*[#  17]+0.065*[#   8]+0.051*[#  15]
          +0.044*[#   6]+0.010*[#  18]+0.009*[#  22]+0.009*[#  26]+0.008*[#   9]
          +0.001*[#  21]+0.001*[#  25]
    |psi|^2 = 0.999
==== e(   6) =    -5.34602 eV ==== 
     psi = 0.334*[#   6]+0.290*[#  15]+0.136*[#   9]+0.127*[#  18]+0.041*[#   7]
          +0.037*[#  16]+0.017*[#   8]+0.016*[#  17]
    |psi|^2 = 0.998
==== e(   7) =    -5.34398 eV ==== 
     psi = 0.351*[#   7]+0.304*[#  16]+0.121*[#   8]+0.111*[#  17]+0.044*[#   6]
          +0.037*[#  15]+0.015*[#   9]+0.014*[#  18]
    |psi|^2 = 0.998
==== e(   8) =    -5.33491 eV ==== 
     psi = 0.481*[#   5]+0.455*[#  14]+0.010*[#  19]+0.010*[#  20]+0.010*[#  23]
          +0.009*[#  24]+0.006*[#   2]+0.006*[#  11]+0.002*[#  17]+0.002*[#  18]
          +0.001*[#   8]+0.001*[#  15]+0.001*[#  16]
    |psi|^2 = 0.998
==== e(   9) =    -5.31396 eV ==== 
     psi = 0.469*[#  17]+0.182*[#   8]+0.153*[#  16]+0.082*[#   7]+0.061*[#  18]
          +0.023*[#  15]+0.013*[#   9]+0.010*[#   6]+0.003*[#  22]+0.002*[#  26]
          
    |psi|^2 = 0.999
==== e(  10) =    -5.31377 eV ==== 
     psi = 0.474*[#  18]+0.167*[#  15]+0.162*[#   9]+0.084*[#   6]+0.053*[#  17]
          +0.029*[#   8]+0.016*[#  16]+0.010*[#   7]+0.002*[#  21]+0.002*[#  25]
          
    |psi|^2 = 0.999
==== e(  11) =    -5.30676 eV ==== 
     psi = 0.549*[#   9]+0.208*[#  18]+0.125*[#   6]+0.050*[#   8]+0.030*[#  15]
          +0.016*[#  17]+0.012*[#   7]+0.002*[#  14]+0.002*[#   5]+0.002*[#  16]
          
    |psi|^2 = 0.999
==== e(  12) =    -5.30480 eV ==== 
     psi = 0.519*[#   8]+0.244*[#  17]+0.111*[#   7]+0.045*[#   9]+0.040*[#  16]
          +0.024*[#  18]+0.009*[#   6]+0.004*[#  15]
    |psi|^2 = 0.999
==== e(  13) =    -1.87108 eV ==== 
     psi = 0.272*[#  24]+0.271*[#  20]+0.213*[#   1]+0.213*[#  10]+0.007*[#   2]
          +0.007*[#  11]+0.007*[#   5]+0.007*[#  14]
    |psi|^2 = 0.998
==== e(  14) =     0.76112 eV ==== 
     psi = 0.367*[#  20]+0.367*[#  24]+0.055*[#   2]+0.054*[#  11]+0.052*[#   1]
          +0.052*[#  10]+0.017*[#   5]+0.017*[#  14]+0.008*[#  19]+0.008*[#  23]
          
    |psi|^2 = 0.999
==== e(  15) =     0.98117 eV ==== 
     psi = 0.409*[#  21]+0.409*[#  25]+0.056*[#  26]+0.054*[#  22]+0.028*[#  12]
          +0.028*[#   3]+0.004*[#   4]+0.004*[#  13]+0.002*[#   9]+0.002*[#  18]
          
    |psi|^2 = 0.999
==== e(  16) =     1.02965 eV ==== 
     psi = 0.414*[#  22]+0.408*[#  26]+0.057*[#  21]+0.054*[#  25]+0.026*[#  13]
          +0.026*[#   4]+0.004*[#   3]+0.004*[#  12]+0.002*[#   8]+0.002*[#  17]
          
    |psi|^2 = 0.999
==== e(  17) =     1.41025 eV ==== 
     psi = 0.422*[#  25]+0.421*[#  21]+0.067*[#  22]+0.065*[#  26]+0.007*[#   6]
          +0.007*[#  15]+0.002*[#   9]+0.002*[#  18]+0.001*[#   7]+0.001*[#  16]
          
    |psi|^2 = 0.998
==== e(  18) =     1.42714 eV ==== 
     psi = 0.425*[#  26]+0.420*[#  22]+0.068*[#  25]+0.065*[#  21]+0.007*[#   7]
          +0.007*[#  16]+0.002*[#   8]+0.002*[#  17]+0.001*[#   6]+0.001*[#  15]
          
    |psi|^2 = 0.998
==== e(  19) =     1.54770 eV ==== 
     psi = 0.382*[#   1]+0.381*[#  10]+0.055*[#  19]+0.055*[#  23]+0.042*[#  20]
          +0.042*[#  24]+0.014*[#   2]+0.014*[#  11]+0.006*[#   5]+0.006*[#  14]
          
    |psi|^2 = 0.996
==== e(  20) =     4.41830 eV ==== 
     psi = 0.184*[#  10]+0.184*[#   1]+0.172*[#  11]+0.171*[#   2]+0.095*[#  24]
          +0.095*[#  20]+0.043*[#  19]+0.043*[#  23]
    |psi|^2 = 0.985
==== e(  21) =     7.50733 eV ==== 
     psi = 0.140*[#   2]+0.135*[#  11]+0.077*[#   3]+0.076*[#  12]+0.073*[#  20]
          +0.071*[#  24]+0.065*[#  10]+0.065*[#   1]+0.053*[#  13]+0.052*[#   4]
          +0.031*[#  19]+0.031*[#  23]+0.003*[#   5]+0.003*[#  14]
    |psi|^2 = 0.874
==== e(  22) =     7.58093 eV ==== 
     psi = 0.383*[#  12]+0.380*[#   3]+0.034*[#   2]+0.030*[#  11]+0.018*[#  20]
          +0.017*[#  24]+0.016*[#   1]+0.016*[#  10]+0.007*[#  19]+0.007*[#  23]
          
    |psi|^2 = 0.911
==== e(  23) =     7.60805 eV ==== 
     psi = 0.409*[#   4]+0.408*[#  13]+0.019*[#   2]+0.018*[#  11]+0.011*[#  20]
          +0.010*[#  24]+0.009*[#   1]+0.009*[#  10]+0.005*[#   3]+0.005*[#  12]
          +0.004*[#  19]+0.004*[#  23]
    |psi|^2 = 0.915
==== e(  24) =     7.95145 eV ==== 
     psi = 0.308*[#  11]+0.301*[#   2]+0.052*[#  24]+0.049*[#  20]
    |psi|^2 = 0.715
==== e(  25) =     8.59067 eV ==== 
     psi = 0.322*[#   3]+0.321*[#  12]+0.063*[#  13]+0.063*[#   4]+0.022*[#  21]
          +0.022*[#  25]+0.004*[#  22]+0.004*[#  26]
    |psi|^2 = 0.822
==== e(  26) =     8.60932 eV ==== 
     psi = 0.328*[#   4]+0.327*[#  13]+0.064*[#   3]+0.064*[#  12]+0.021*[#  26]
          +0.021*[#  22]+0.004*[#  21]+0.004*[#  25]
    |psi|^2 = 0.833
==== e(  27) =     9.66382 eV ==== 
     psi = 0.067*[#   2]+0.067*[#  11]+0.006*[#  20]+0.006*[#  24]
    |psi|^2 = 0.147
==== e(  28) =    10.35555 eV ==== 
     psi = 0.005*[#   3]+0.005*[#  12]
    |psi|^2 = 0.013
==== e(  29) =    10.47638 eV ==== 
     psi = 0.005*[#   4]+0.005*[#  13]
    |psi|^2 = 0.013
==== e(  30) =    11.57611 eV ==== 
     psi = 0.024*[#  11]+0.024*[#   2]+0.013*[#  20]+0.013*[#  24]+0.007*[#  19]
          +0.007*[#  23]+0.006*[#   1]+0.006*[#  10]
    |psi|^2 = 0.099
==== e(  31) =    11.65063 eV ==== 
     psi = 0.004*[#   3]+0.004*[#  12]+0.003*[#   4]+0.003*[#  13]
    |psi|^2 = 0.014
==== e(  32) =    11.69775 eV ==== 
     psi = 0.007*[#   3]+0.007*[#  12]+0.004*[#   4]+0.004*[#  13]
    |psi|^2 = 0.023
==== e(  33) =    11.71955 eV ==== 
     psi = 0.006*[#   4]+0.006*[#  13]
    |psi|^2 = 0.013
==== e(  34) =    12.54553 eV ==== 
     psi = 0.011*[#   2]+0.011*[#  11]+0.005*[#  19]+0.005*[#  20]+0.005*[#  23]
          +0.005*[#  24]
    |psi|^2 = 0.042
==== e(  35) =    13.41267 eV ==== 
     psi = 0.059*[#   3]+0.059*[#  12]+0.008*[#   4]+0.008*[#  13]+0.004*[#  21]
          +0.004*[#  25]
    |psi|^2 = 0.144
==== e(  36) =    13.56140 eV ==== 
     psi = 0.055*[#   4]+0.054*[#  13]+0.007*[#   3]+0.007*[#  12]+0.004*[#  22]
          +0.004*[#  26]
    |psi|^2 = 0.132
==== e(  37) =    13.90377 eV ==== 
     psi = 0.004*[#  20]+0.004*[#  24]+0.004*[#   1]+0.004*[#  10]
    |psi|^2 = 0.015
==== e(  38) =    15.23453 eV ==== 

    |psi|^2 = 0.002
==== e(  39) =    15.30888 eV ==== 

    |psi|^2 = 0.002
==== e(  40) =    16.12386 eV ==== 
     psi = 0.014*[#   3]+0.014*[#  12]+0.008*[#   4]+0.008*[#  13]
    |psi|^2 = 0.045

 k =   0.0000000000  0.0000000000  0.0000000000
==== e(   1) =    -9.29481 eV ==== 
     psi = 0.422*[#  23]+0.409*[#  19]+0.066*[#  10]+0.066*[#   1]+0.017*[#  14]
          +0.016*[#   5]+0.001*[#  11]
    |psi|^2 = 0.999
==== e(   2) =    -9.11471 eV ==== 
     psi = 0.391*[#  19]+0.377*[#  23]+0.090*[#   2]+0.090*[#  11]+0.024*[#   5]
          +0.024*[#  14]
    |psi|^2 = 0.998
==== e(   3) =    -5.45070 eV ==== 
     psi = 0.472*[#  14]+0.450*[#   5]+0.021*[#  24]+0.021*[#  20]+0.012*[#  23]
          +0.012*[#  19]+0.006*[#   1]+0.006*[#  10]
    |psi|^2 = 0.999
==== e(   4) =    -5.37199 eV ==== 
     psi = 0.413*[#  15]+0.356*[#   6]+0.056*[#  16]+0.050*[#  18]+0.048*[#   7]
          +0.045*[#   9]+0.008*[#  21]+0.008*[#  25]+0.007*[#  17]+0.006*[#   8]
          +0.001*[#  22]+0.001*[#  26]
    |psi|^2 = 0.999
==== e(   5) =    -5.36707 eV ==== 
     psi = 0.417*[#  16]+0.355*[#   7]+0.057*[#  15]+0.050*[#  17]+0.048*[#   6]
          +0.044*[#   8]+0.007*[#  22]+0.007*[#  26]+0.007*[#  18]+0.006*[#   9]
          
    |psi|^2 = 0.999
==== e(   6) =    -5.31491 eV ==== 
     psi = 0.458*[#   7]+0.409*[#  16]+0.049*[#   6]+0.042*[#  15]+0.025*[#   8]
          +0.012*[#  17]+0.002*[#   9]+0.002*[#  18]
    |psi|^2 = 0.998
==== e(   7) =    -5.31449 eV ==== 
     psi = 0.408*[#   6]+0.353*[#  15]+0.075*[#   9]+0.066*[#  18]+0.042*[#   7]
          +0.038*[#  16]+0.009*[#   8]+0.007*[#  17]
    |psi|^2 = 0.998
==== e(   8) =    -5.31010 eV ==== 
     psi = 0.549*[#  18]+0.133*[#  17]+0.132*[#   9]+0.096*[#  15]+0.033*[#   6]
          +0.029*[#   8]+0.016*[#  16]+0.003*[#   7]+0.002*[#  14]+0.002*[#  21]
          +0.001*[#  25]+0.001*[#   5]
    |psi|^2 = 0.999
==== e(   9) =    -5.30904 eV ==== 
     psi = 0.563*[#  17]+0.217*[#   8]+0.121*[#  18]+0.051*[#   9]+0.028*[#  16]
          +0.009*[#  15]+0.004*[#   7]+0.003*[#   6]+0.002*[#  22]+0.002*[#  26]
          
    |psi|^2 = 0.999
==== e(  10) =    -5.30442 eV ==== 
     psi = 0.542*[#   9]+0.138*[#   8]+0.136*[#  18]+0.078*[#   6]+0.029*[#  17]
          +0.020*[#   7]+0.019*[#   5]+0.016*[#  14]+0.014*[#  15]+0.003*[#  16]
          
    |psi|^2 = 0.999
==== e(  11) =    -5.30200 eV ==== 
     psi = 0.507*[#   8]+0.181*[#  17]+0.135*[#   9]+0.060*[#   7]+0.056*[#  18]
          +0.025*[#  16]+0.015*[#   6]+0.007*[#  15]+0.006*[#   5]+0.005*[#  14]
          
    |psi|^2 = 0.999
==== e(  12) =    -5.29010 eV ==== 
     psi = 0.451*[#   5]+0.430*[#  14]+0.020*[#   8]+0.016*[#  19]+0.015*[#  23]
          +0.014*[#  17]+0.008*[#  20]+0.008*[#  18]+0.008*[#   2]+0.008*[#  11]
          +0.008*[#  24]+0.008*[#   9]+0.001*[#   7]
    |psi|^2 = 0.998
==== e(  13) =    -1.72323 eV ==== 
     psi = 0.260*[#  24]+0.259*[#  20]+0.226*[#   1]+0.226*[#  10]+0.007*[#   2]
          +0.007*[#  11]+0.006*[#   5]+0.006*[#  14]
    |psi|^2 = 0.998
==== e(  14) =     1.03444 eV ==== 
     psi = 0.330*[#  20]+0.330*[#  24]+0.090*[#   1]+0.089*[#  10]+0.050*[#   2]
          +0.050*[#  11]+0.016*[#  19]+0.016*[#  23]+0.013*[#   5]+0.013*[#  14]
          
    |psi|^2 = 0.998
==== e(  15) =     1.65633 eV ==== 
     psi = 0.336*[#   1]+0.335*[#  10]+0.077*[#  20]+0.077*[#  24]+0.053*[#  19]
          +0.053*[#  23]+0.022*[#   2]+0.022*[#  11]+0.008*[#   5]+0.008*[#  14]
          
    |psi|^2 = 0.995
==== e(  16) =     1.88881 eV ==== 
     psi = 0.403*[#  21]+0.402*[#  25]+0.052*[#  22]+0.051*[#  26]+0.037*[#  12]
          +0.037*[#   3]+0.005*[#   4]+0.005*[#  13]+0.002*[#   9]+0.002*[#  18]
          
    |psi|^2 = 0.998
==== e(  17) =     1.94124 eV ==== 
     psi = 0.405*[#  26]+0.404*[#  22]+0.053*[#  25]+0.052*[#  21]+0.035*[#  13]
          +0.035*[#   4]+0.004*[#   3]+0.004*[#  12]+0.002*[#   8]+0.002*[#  17]
          
    |psi|^2 = 0.998
==== e(  18) =     2.38170 eV ==== 
     psi = 0.424*[#  25]+0.422*[#  21]+0.067*[#  26]+0.065*[#  22]+0.006*[#   6]
          +0.006*[#  15]+0.002*[#   9]+0.002*[#  18]
    |psi|^2 = 0.996
==== e(  19) =     2.40038 eV ==== 
     psi = 0.424*[#  22]+0.423*[#  26]+0.067*[#  21]+0.065*[#  25]+0.006*[#   7]
          +0.006*[#  16]+0.002*[#   8]+0.002*[#  17]
    |psi|^2 = 0.997
==== e(  20) =     4.57676 eV ==== 
     psi = 0.176*[#  10]+0.176*[#   1]+0.172*[#  11]+0.171*[#   2]+0.102*[#  24]
          +0.102*[#  20]+0.043*[#  19]+0.043*[#  23]
    |psi|^2 = 0.984
==== e(  21) =     7.65467 eV ==== 
     psi = 0.258*[#   3]+0.256*[#  12]+0.101*[#  13]+0.100*[#   4]+0.047*[#   2]
          +0.046*[#  11]+0.025*[#  20]+0.025*[#  24]+0.021*[#  10]+0.020*[#   1]
          +0.010*[#  19]+0.010*[#  23]
    |psi|^2 = 0.922
==== e(  22) =     7.70672 eV ==== 
     psi = 0.227*[#  13]+0.225*[#   4]+0.199*[#  12]+0.197*[#   3]+0.019*[#   2]
          +0.018*[#  11]+0.011*[#  20]+0.010*[#  24]+0.009*[#   1]+0.009*[#  10]
          +0.004*[#  19]+0.004*[#  23]
    |psi|^2 = 0.933
==== e(  23) =     7.74826 eV ==== 
     psi = 0.146*[#   4]+0.143*[#  13]+0.123*[#   2]+0.116*[#  11]+0.069*[#  20]
          +0.067*[#  24]+0.055*[#  10]+0.055*[#   1]+0.028*[#  19]+0.028*[#  23]
          +0.018*[#  12]+0.018*[#   3]+0.002*[#   5]+0.002*[#  14]
    |psi|^2 = 0.870
==== e(  24) =     8.15893 eV ==== 
     psi = 0.329*[#  11]+0.322*[#   2]+0.058*[#  24]+0.055*[#  20]+0.001*[#  23]
          +0.001*[#  19]
    |psi|^2 = 0.770
==== e(  25) =     8.82525 eV ==== 
     psi = 0.288*[#   3]+0.288*[#  12]+0.106*[#  13]+0.106*[#   4]+0.027*[#  21]
          +0.027*[#  25]+0.009*[#  22]+0.009*[#  26]
    |psi|^2 = 0.861
==== e(  26) =     8.83349 eV ==== 
     psi = 0.295*[#   4]+0.294*[#  13]+0.107*[#   3]+0.106*[#  12]+0.025*[#  26]
          +0.025*[#  22]+0.009*[#  21]+0.009*[#  25]
    |psi|^2 = 0.869
==== e(  27) =     9.78659 eV ==== 
     psi = 0.044*[#   2]+0.044*[#  11]+0.003*[#  20]+0.003*[#  24]
    |psi|^2 = 0.095
==== e(  28) =    10.70869 eV ==== 
     psi = 0.002*[#   3]+0.002*[#  12]
    |psi|^2 = 0.007
==== e(  29) =    10.82765 eV ==== 
     psi = 0.002*[#   4]+0.002*[#  13]
    |psi|^2 = 0.006
==== e(  30) =    11.75060 eV ==== 
     psi = 0.029*[#   2]+0.029*[#  11]+0.016*[#  20]+0.016*[#  24]+0.009*[#  19]
          +0.009*[#  23]+0.006*[#   1]+0.006*[#  10]
    |psi|^2 = 0.119
==== e(  31) =    11.79069 eV ==== 

    |psi|^2 = 0.001
==== e(  32) =    11.94627 eV ==== 
     psi = 0.004*[#   3]+0.004*[#  12]
    |psi|^2 = 0.010
==== e(  33) =    11.97991 eV ==== 
     psi = 0.004*[#   4]+0.005*[#  13]
    |psi|^2 = 0.011
==== e(  34) =    12.77545 eV ==== 
     psi = 0.008*[#   2]+0.008*[#  11]+0.005*[#  19]+0.005*[#  23]+0.004*[#  20]
          +0.004*[#  24]
    |psi|^2 = 0.034
==== e(  35) =    13.84125 eV ==== 
     psi = 0.049*[#   3]+0.049*[#  12]+0.006*[#   4]+0.006*[#  13]+0.005*[#  21]
          +0.005*[#  25]
    |psi|^2 = 0.122
==== e(  36) =    13.98124 eV ==== 
     psi = 0.004*[#   4]+0.004*[#  13]+0.004*[#  20]+0.004*[#  24]+0.003*[#   1]
          +0.003*[#  10]
    |psi|^2 = 0.025
==== e(  37) =    13.99182 eV ==== 
     psi = 0.040*[#   4]+0.040*[#  13]+0.006*[#   3]+0.006*[#  12]+0.004*[#  22]
          +0.004*[#  26]
    |psi|^2 = 0.103
==== e(  38) =    15.47734 eV ==== 

    |psi|^2 = 0.002
==== e(  39) =    15.54881 eV ==== 

    |psi|^2 = 0.002
==== e(  40) =    16.53013 eV ==== 
     psi = 0.014*[#   3]+0.014*[#  12]+0.003*[#   4]+0.003*[#  13]
    |psi|^2 = 0.036

Lowdin Charges: 

     Atom #   1: total charge =  11.8952, s =  1.4381, p =  0.4949, d =  9.9622, 
                 spin up      =   5.9371, s =  0.7126, 
                 spin up      =   5.9371, p =  0.2347, pz=  0.1732, px=  0.0317, py=  0.0297, 
                 spin up      =   5.9371, d =  4.9898, dz2=  0.9938, dxz=  0.9988, dyz=  0.9988, dx2-y2=  0.9992, dxy=  0.9992, 
                 spin down    =   5.9581, s =  0.7255, 
                 spin down    =   5.9581, p =  0.2602, pz=  0.1793, px=  0.0416, py=  0.0393, 
                 spin down    =   5.9581, d =  4.9723, dz2=  0.9937, dxz=  0.9920, dyz=  0.9924, dx2-y2=  0.9971, dxy=  0.9970, 
                 polarization =  -0.0210, s = -0.0130, p = -0.0255, d =  0.0175, 
     Atom #   2: total charge =  11.8941, s =  1.4364, p =  0.4958, d =  9.9619, 
                 spin up      =   5.9365, s =  0.7117, 
                 spin up      =   5.9365, p =  0.2351, pz=  0.1732, px=  0.0319, py=  0.0299, 
                 spin up      =   5.9365, d =  4.9898, dz2=  0.9938, dxz=  0.9988, dyz=  0.9988, dx2-y2=  0.9992, dxy=  0.9992, 
                 spin down    =   5.9576, s =  0.7247, 
                 spin down    =   5.9576, p =  0.2607, pz=  0.1792, px=  0.0419, py=  0.0396, 
                 spin down    =   5.9576, d =  4.9722, dz2=  0.9937, dxz=  0.9920, dyz=  0.9924, dx2-y2=  0.9971, dxy=  0.9970, 
                 polarization =  -0.0211, s = -0.0130, p = -0.0257, d =  0.0176, 
     Atom #   3: total charge =   6.0788, s =  1.7992, p =  4.2796, d =  0.0000, 
                 spin up      =   3.5499, s =  0.9009, 
                 spin up      =   3.5499, p =  2.6490, pz=  0.7140, px=  0.9665, py=  0.9685, 
                 spin up      =   3.5499, d =  0.0000, dz2=  0.0000, dxz=  0.0000, dyz=  0.0000, dx2-y2=  0.0000, dxy=  0.0000, 
                 spin down    =   2.5289, s =  0.8983, 
                 spin down    =   2.5289, p =  1.6306, pz=  0.6968, px=  0.4659, py=  0.4679, 
                 spin down    =   2.5289, d =  0.0000, dz2=  0.0000, dxz=  0.0000, dyz=  0.0000, dx2-y2=  0.0000, dxy=  0.0000, 
                 polarization =   1.0211, s =  0.0026, p =  1.0184, d =  0.0000, 
     Atom #   4: total charge =   6.0780, s =  1.7988, p =  4.2792, d =  0.0000, 
                 spin up      =   3.5494, s =  0.9007, 
                 spin up      =   3.5494, p =  2.6486, pz=  0.7137, px=  0.9665, py=  0.9685, 
                 spin up      =   3.5494, d =  0.0000, dz2=  0.0000, dxz=  0.0000, dyz=  0.0000, dx2-y2=  0.0000, dxy=  0.0000, 
                 spin down    =   2.5286, s =  0.8981, 
                 spin down    =   2.5286, p =  1.6305, pz=  0.6966, px=  0.4661, py=  0.4678, 
                 spin down    =   2.5286, d =  0.0000, dz2=  0.0000, dxz=  0.0000, dyz=  0.0000, dx2-y2=  0.0000, dxy=  0.0000, 
                 polarization =   1.0208, s =  0.0027, p =  1.0181, d =  0.0000, 
     Spilling Parameter:   0.0015

     PROJWFC      :      1.15s CPU      2.00s WALL


   This run was terminated on:  17:19:32  24May2021            

=------------------------------------------------------------------------------=
   JOB DONE.
=------------------------------------------------------------------------------=
