
     Program PHONON v.6.7MaX starts on 26May2021 at 12:31:12 

     This program is part of the open-source Quantum ESPRESSO suite
     for quantum simulation of materials; please cite
         "P. Giannozzi et al., J. Phys.:Condens. Matter 21 395502 (2009);
         "P. Giannozzi et al., J. Phys.:Condens. Matter 29 465901 (2017);
          URL http://www.quantum-espresso.org", 
     in publications or presentations arising from this work. More details at
     http://www.quantum-espresso.org/quote

     Parallel version (MPI), running on    12 processors

     MPI processes distributed on     1 nodes
     R & G space division:  proc/nbgrp/npool/nimage =      12
     Waiting for input...
     Reading input from standard input

     Reading xml data from directory:

     ./silicon.save/
     file Si.pbe-n-kjpaw_psl.0.1.UPF: wavefunction(s)  3S renormalized

     IMPORTANT: XC functional enforced from input :
     Exchange-correlation= PBE
                           (   1   4   3   4   0   0   0)
     Any further DFT definition will be discarded
     Please, verify this is what you really want


     Parallelization info
     --------------------
     sticks:   dense  smooth     PW     G-vecs:    dense   smooth      PW
     Min          36      36     11                  496      496      88
     Max          37      37     12                  499      499      90
     Sum         433     433    139                 5961     5961    1067


     Check: negative core charge=   -0.000003
     Reading collected, re-writing distributed wavefunctions


     Dynamical matrices for ( 4, 4, 4)  uniform grid of q-points
     (   8 q-points):
       N         xq(1)         xq(2)         xq(3) 
       1   0.000000000   0.000000000   0.000000000
       2  -0.250000000   0.250000000  -0.250000000
       3   0.500000000  -0.500000000   0.500000000
       4   0.000000000   0.500000000   0.000000000
       5   0.750000000  -0.250000000   0.750000000
       6   0.500000000   0.000000000   0.500000000
       7   0.000000000  -1.000000000   0.000000000
       8  -0.500000000  -1.000000000   0.000000000

     Calculation of q =    0.0000000   0.0000000   0.0000000

     phonons of Si                                                              

     bravais-lattice index     =            2
     lattice parameter (alat)  =      10.2000  a.u.
     unit-cell volume          =     265.3020 (a.u.)^3
     number of atoms/cell      =            2
     number of atomic types    =            1
     kinetic-energy cut-off    =      30.0000  Ry
     charge density cut-off    =     120.0000  Ry
     convergence threshold     =      1.0E-14
     beta                      =       0.7000
     number of iterations used =            4
     Exchange-correlation= PBE
                           (   1   4   3   4   0   0   0)


     celldm(1)=   10.20000  celldm(2)=    0.00000  celldm(3)=    0.00000
     celldm(4)=    0.00000  celldm(5)=    0.00000  celldm(6)=    0.00000

     crystal axes: (cart. coord. in units of alat)
               a(1) = ( -0.5000  0.0000  0.5000 )  
               a(2) = (  0.0000  0.5000  0.5000 )  
               a(3) = ( -0.5000  0.5000  0.0000 )  

     reciprocal axes: (cart. coord. in units 2 pi/alat)
               b(1) = ( -1.0000 -1.0000  1.0000 )  
               b(2) = (  1.0000  1.0000  1.0000 )  
               b(3) = ( -1.0000  1.0000 -1.0000 )  


     Atoms inside the unit cell: 

     Cartesian axes

     site n.  atom      mass           positions (alat units)
        1     Si  28.0860   tau(    1) = (    0.00000    0.00000    0.00000  )
        2     Si  28.0860   tau(    2) = (    0.25000    0.25000    0.25000  )

     Computing dynamical matrix for 
                    q = (   0.0000000   0.0000000   0.0000000 )

     49 Sym.Ops. (with q -> -q+G )


     G cutoff =  316.2437  (    497 G-vectors)     FFT grid: ( 32, 32, 32)
     number of k points=    56

     PseudoPot. # 1 for Si read from file:
     PP/Si.pbe-n-kjpaw_psl.0.1.UPF
     MD5 check sum: b9d333a40e496bef61db012f150758bf
     Pseudo is Projector augmented-wave + core cor, Zval =  4.0
     Generated using "atomic" code by A. Dal Corso  v.5.0.2 svn rev. 9415
     Shape of augmentation charge: PSQ
     Using radial grid of 1141 points,  4 beta functions with: 
                l(1) =   0
                l(2) =   0
                l(3) =   1
                l(4) =   1
     Q(r) pseudized with 0 coefficients 


     Mode symmetry, O_h (m-3m)  point group:


     Electric field:
     Dielectric constant
     Born effective charges in two ways 


     Atomic displacements:
     There are    2 irreducible representations

     Representation     1      3 modes -  To be done

     Representation     2      3 modes -  To be done



     Alpha used in Ewald sum =   1.3000
     PHONON       :      0.53s CPU      1.93s WALL


     Electric Fields Calculation

      iter #   1 total cpu time :     5.8 secs   av.it.:   6.1
      thresh= 1.000E-02 alpha_mix =  0.700 |ddv_scf|^2 =  1.692E-07

      iter #   2 total cpu time :     7.5 secs   av.it.:  11.2
      thresh= 4.113E-05 alpha_mix =  0.700 |ddv_scf|^2 =  1.019E-08

      iter #   3 total cpu time :     9.2 secs   av.it.:  11.0
      thresh= 1.009E-05 alpha_mix =  0.700 |ddv_scf|^2 =  5.265E-10

      iter #   4 total cpu time :    10.8 secs   av.it.:  10.7
      thresh= 2.295E-06 alpha_mix =  0.700 |ddv_scf|^2 =  3.897E-12

      iter #   5 total cpu time :    12.4 secs   av.it.:  10.9
      thresh= 1.974E-07 alpha_mix =  0.700 |ddv_scf|^2 =  6.143E-15

     End of electric fields calculation

          Dielectric constant in cartesian axis 

          (      13.078382930       0.000000000      -0.000000000 )
          (       0.000000000      13.078382930      -0.000000000 )
          (       0.000000000      -0.000000000      13.078382930 )

          Effective charges (d Force / dE) in cartesian axis

           atom      1   Si 
      Ex  (       -0.01264        0.00000        0.00000 )
      Ey  (        0.00000       -0.01264       -0.00000 )
      Ez  (        0.00000       -0.00000       -0.01264 )
           atom      2   Si 
      Ex  (       -0.01264        0.00000       -0.00000 )
      Ey  (        0.00000       -0.01264       -0.00000 )
      Ez  (        0.00000       -0.00000       -0.01264 )


     Representation #   1 modes #   1   2   3

     Self-consistent Calculation

      iter #   1 total cpu time :    14.8 secs   av.it.:   5.0
      thresh= 1.000E-02 alpha_mix =  0.700 |ddv_scf|^2 =  3.885E-08

      iter #   2 total cpu time :    16.4 secs   av.it.:  11.1
      thresh= 1.971E-05 alpha_mix =  0.700 |ddv_scf|^2 =  2.526E-09

      iter #   3 total cpu time :    18.1 secs   av.it.:  10.9
      thresh= 5.026E-06 alpha_mix =  0.700 |ddv_scf|^2 =  1.199E-10

      iter #   4 total cpu time :    19.8 secs   av.it.:  10.9
      thresh= 1.095E-06 alpha_mix =  0.700 |ddv_scf|^2 =  3.795E-13

      iter #   5 total cpu time :    21.4 secs   av.it.:  11.4
      thresh= 6.161E-08 alpha_mix =  0.700 |ddv_scf|^2 =  4.289E-15

     End of self-consistent calculation

     Convergence has been achieved 


     Representation #   2 modes #   4   5   6

     Self-consistent Calculation

      iter #   1 total cpu time :    22.9 secs   av.it.:   5.1
      thresh= 1.000E-02 alpha_mix =  0.700 |ddv_scf|^2 =  3.539E-08

      iter #   2 total cpu time :    24.6 secs   av.it.:  11.2
      thresh= 1.881E-05 alpha_mix =  0.700 |ddv_scf|^2 =  2.558E-09

      iter #   3 total cpu time :    26.4 secs   av.it.:  11.1
      thresh= 5.058E-06 alpha_mix =  0.700 |ddv_scf|^2 =  9.573E-11

      iter #   4 total cpu time :    28.0 secs   av.it.:  11.4
      thresh= 9.784E-07 alpha_mix =  0.700 |ddv_scf|^2 =  5.327E-13

      iter #   5 total cpu time :    29.6 secs   av.it.:  11.2
      thresh= 7.298E-08 alpha_mix =  0.700 |ddv_scf|^2 =  1.379E-15

     End of self-consistent calculation

     Convergence has been achieved 

     Number of q in the star =    1
     List of q in the star:
          1   0.000000000   0.000000000   0.000000000

          Dielectric constant in cartesian axis 

          (      13.078382930       0.000000000      -0.000000000 )
          (       0.000000000      13.078382930      -0.000000000 )
          (       0.000000000      -0.000000000      13.078382930 )

          Effective charges (d Force / dE) in cartesian axis

           atom      1   Si 
      Ex  (       -0.01264        0.00000        0.00000 )
      Ey  (        0.00000       -0.01264       -0.00000 )
      Ez  (        0.00000       -0.00000       -0.01264 )
           atom      2   Si 
      Ex  (       -0.01264        0.00000       -0.00000 )
      Ey  (        0.00000       -0.01264       -0.00000 )
      Ez  (        0.00000       -0.00000       -0.01264 )

          Effective charges (d P / du) in cartesian axis 

           atom      1   Si 
      Px  (       -0.01259        0.00000        0.00000 )
      Py  (        0.00000       -0.01259       -0.00000 )
      Pz  (        0.00000       -0.00000       -0.01259 )
           atom      2   Si 
      Px  (       -0.01259        0.00000        0.00000 )
      Py  (        0.00000       -0.01259        0.00000 )
      Pz  (        0.00000        0.00000       -0.01259 )

     Diagonalizing the dynamical matrix

     q = (    0.000000000   0.000000000   0.000000000 ) 

 **************************************************************************
     freq (    1) =       0.543515 [THz] =      18.129718 [cm-1]
     freq (    2) =       0.543515 [THz] =      18.129718 [cm-1]
     freq (    3) =       0.543515 [THz] =      18.129718 [cm-1]
     freq (    4) =      15.640430 [THz] =     521.708581 [cm-1]
     freq (    5) =      15.640430 [THz] =     521.708581 [cm-1]
     freq (    6) =      15.640430 [THz] =     521.708581 [cm-1]
 **************************************************************************

     Mode symmetry, O_h (m-3m)  point group:

     freq (   1-   3) =         18.1  [cm-1]   --> T_1u G_15  G_4- I  
     freq (   4-   6) =        521.7  [cm-1]   --> T_2g G_25' G_5+ R  

     Calculation of q =   -0.2500000   0.2500000  -0.2500000

     Subspace diagonalization in iterative solution of the eigenvalue problem:
     a serial algorithm will be used


     Parallelization info
     --------------------
     sticks:   dense  smooth     PW     G-vecs:    dense   smooth      PW
     Min          36      36     12                  496      496     102
     Max          37      37     13                  499      499     105
     Sum         433     433    151                 5961     5961    1243


     Title: 
     phonons of Si                                                              


     bravais-lattice index     =            2
     lattice parameter (alat)  =      10.2000  a.u.
     unit-cell volume          =     265.3020 (a.u.)^3
     number of atoms/cell      =            2
     number of atomic types    =            1
     number of electrons       =         8.00
     number of Kohn-Sham states=            4
     kinetic-energy cutoff     =      30.0000  Ry
     charge density cutoff     =     120.0000  Ry
     Exchange-correlation= PBE
                           (   1   4   3   4   0   0   0)

     celldm(1)=  10.200000  celldm(2)=   0.000000  celldm(3)=   0.000000
     celldm(4)=   0.000000  celldm(5)=   0.000000  celldm(6)=   0.000000

     crystal axes: (cart. coord. in units of alat)
               a(1) = (  -0.500000   0.000000   0.500000 )  
               a(2) = (   0.000000   0.500000   0.500000 )  
               a(3) = (  -0.500000   0.500000   0.000000 )  

     reciprocal axes: (cart. coord. in units 2 pi/alat)
               b(1) = ( -1.000000 -1.000000  1.000000 )  
               b(2) = (  1.000000  1.000000  1.000000 )  
               b(3) = ( -1.000000  1.000000 -1.000000 )  


     PseudoPot. # 1 for Si read from file:
     PP/Si.pbe-n-kjpaw_psl.0.1.UPF
     MD5 check sum: b9d333a40e496bef61db012f150758bf
     Pseudo is Projector augmented-wave + core cor, Zval =  4.0
     Generated using "atomic" code by A. Dal Corso  v.5.0.2 svn rev. 9415
     Shape of augmentation charge: PSQ
     Using radial grid of 1141 points,  4 beta functions with: 
                l(1) =   0
                l(2) =   0
                l(3) =   1
                l(4) =   1
     Q(r) pseudized with 0 coefficients 


     atomic species   valence    mass     pseudopotential
        Si             4.00    28.08600     Si( 1.00)

     48 Sym. Ops., with inversion, found



   Cartesian axes

     site n.     atom                  positions (alat units)
         1           Si  tau(   1) = (   0.0000000   0.0000000   0.0000000  )
         2           Si  tau(   2) = (   0.2500000   0.2500000   0.2500000  )

     number of k points=   572

     Number of k-points >= 100: set verbosity='high' to print them.

     Dense  grid:     5961 G-vectors     FFT dimensions: (  32,  32,  32)

     Estimated max dynamical RAM per process >       0.88 MB

     Estimated total dynamical RAM >      10.60 MB

     Check: negative core charge=   -0.000003

     The potential is recalculated from file :
     ./_ph0/silicon.save/charge-density

     Starting wfcs are    8 atomic wfcs
     Checking if some PAW data can be deallocated... 

     Band Structure Calculation
     Davidson diagonalization with overlap

     ethr =  1.25E-10,  avg # of iterations = 12.3

     total cpu time spent up to now is        4.7 secs

     End of band structure calculation

     Number of k-points >= 100: set verbosity='high' to print the bands.

     highest occupied level (ev):     6.4038

     Writing output data file ./_ph0/silicon.save/

     phonons of Si                                                              

     bravais-lattice index     =            2
     lattice parameter (alat)  =      10.2000  a.u.
     unit-cell volume          =     265.3020 (a.u.)^3
     number of atoms/cell      =            2
     number of atomic types    =            1
     kinetic-energy cut-off    =      30.0000  Ry
     charge density cut-off    =     120.0000  Ry
     convergence threshold     =      1.0E-14
     beta                      =       0.7000
     number of iterations used =            4
     Exchange-correlation= PBE
                           (   1   4   3   4   0   0   0)


     celldm(1)=   10.20000  celldm(2)=    0.00000  celldm(3)=    0.00000
     celldm(4)=    0.00000  celldm(5)=    0.00000  celldm(6)=    0.00000

     crystal axes: (cart. coord. in units of alat)
               a(1) = ( -0.5000  0.0000  0.5000 )  
               a(2) = (  0.0000  0.5000  0.5000 )  
               a(3) = ( -0.5000  0.5000  0.0000 )  

     reciprocal axes: (cart. coord. in units 2 pi/alat)
               b(1) = ( -1.0000 -1.0000  1.0000 )  
               b(2) = (  1.0000  1.0000  1.0000 )  
               b(3) = ( -1.0000  1.0000 -1.0000 )  


     Atoms inside the unit cell: 

     Cartesian axes

     site n.  atom      mass           positions (alat units)
        1     Si  28.0860   tau(    1) = (    0.00000    0.00000    0.00000  )
        2     Si  28.0860   tau(    2) = (    0.25000    0.25000    0.25000  )

     Computing dynamical matrix for 
                    q = (  -0.2500000   0.2500000  -0.2500000 )

      6 Sym.Ops. (no q -> -q+G )


     G cutoff =  316.2437  (    497 G-vectors)     FFT grid: ( 32, 32, 32)
     number of k points=   572

     PseudoPot. # 1 for Si read from file:
     PP/Si.pbe-n-kjpaw_psl.0.1.UPF
     MD5 check sum: b9d333a40e496bef61db012f150758bf
     Pseudo is Projector augmented-wave + core cor, Zval =  4.0
     Generated using "atomic" code by A. Dal Corso  v.5.0.2 svn rev. 9415
     Shape of augmentation charge: PSQ
     Using radial grid of 1141 points,  4 beta functions with: 
                l(1) =   0
                l(2) =   0
                l(3) =   1
                l(4) =   1
     Q(r) pseudized with 0 coefficients 


     Mode symmetry, C_3v (3m)   point group:


     Atomic displacements:
     There are    4 irreducible representations

     Representation     1      1 modes -  To be done

     Representation     2      1 modes -  To be done

     Representation     3      2 modes -  To be done

     Representation     4      2 modes -  To be done



     Alpha used in Ewald sum =   1.3000
     PHONON       :     26.37s CPU     37.36s WALL



     Representation #   1 mode #   1

     Self-consistent Calculation

      iter #   1 total cpu time :    38.8 secs   av.it.:   6.1
      thresh= 1.000E-02 alpha_mix =  0.700 |ddv_scf|^2 =  5.009E-04

      iter #   2 total cpu time :    40.7 secs   av.it.:   9.4
      thresh= 2.238E-03 alpha_mix =  0.700 |ddv_scf|^2 =  7.697E-03

      iter #   3 total cpu time :    42.3 secs   av.it.:   7.3
      thresh= 8.773E-03 alpha_mix =  0.700 |ddv_scf|^2 =  2.461E-07

      iter #   4 total cpu time :    44.1 secs   av.it.:   9.8
      thresh= 4.961E-05 alpha_mix =  0.700 |ddv_scf|^2 =  2.635E-08

      iter #   5 total cpu time :    46.0 secs   av.it.:   9.7
      thresh= 1.623E-05 alpha_mix =  0.700 |ddv_scf|^2 =  5.119E-10

      iter #   6 total cpu time :    47.9 secs   av.it.:   9.8
      thresh= 2.263E-06 alpha_mix =  0.700 |ddv_scf|^2 =  1.207E-10

      iter #   7 total cpu time :    49.7 secs   av.it.:   8.9
      thresh= 1.099E-06 alpha_mix =  0.700 |ddv_scf|^2 =  1.293E-10

      iter #   8 total cpu time :    51.5 secs   av.it.:   8.6
      thresh= 1.137E-06 alpha_mix =  0.700 |ddv_scf|^2 =  4.392E-12

      iter #   9 total cpu time :    53.3 secs   av.it.:   8.8
      thresh= 2.096E-07 alpha_mix =  0.700 |ddv_scf|^2 =  7.255E-14

      iter #  10 total cpu time :    55.2 secs   av.it.:   9.9
      thresh= 2.694E-08 alpha_mix =  0.700 |ddv_scf|^2 =  1.679E-14

      iter #  11 total cpu time :    57.2 secs   av.it.:   9.4
      thresh= 1.296E-08 alpha_mix =  0.700 |ddv_scf|^2 =  3.056E-15

     End of self-consistent calculation

     Convergence has been achieved 


     Representation #   2 mode #   2

     Self-consistent Calculation

      iter #   1 total cpu time :    58.8 secs   av.it.:   6.1
      thresh= 1.000E-02 alpha_mix =  0.700 |ddv_scf|^2 =  5.009E-04

      iter #   2 total cpu time :    60.6 secs   av.it.:   9.4
      thresh= 2.238E-03 alpha_mix =  0.700 |ddv_scf|^2 =  7.697E-03

      iter #   3 total cpu time :    62.2 secs   av.it.:   7.3
      thresh= 8.773E-03 alpha_mix =  0.700 |ddv_scf|^2 =  2.461E-07

      iter #   4 total cpu time :    64.0 secs   av.it.:   9.8
      thresh= 4.961E-05 alpha_mix =  0.700 |ddv_scf|^2 =  2.635E-08

      iter #   5 total cpu time :    65.9 secs   av.it.:   9.7
      thresh= 1.623E-05 alpha_mix =  0.700 |ddv_scf|^2 =  5.119E-10

      iter #   6 total cpu time :    67.9 secs   av.it.:   9.8
      thresh= 2.263E-06 alpha_mix =  0.700 |ddv_scf|^2 =  1.207E-10

      iter #   7 total cpu time :    69.7 secs   av.it.:   8.9
      thresh= 1.099E-06 alpha_mix =  0.700 |ddv_scf|^2 =  1.293E-10

      iter #   8 total cpu time :    71.6 secs   av.it.:   8.6
      thresh= 1.137E-06 alpha_mix =  0.700 |ddv_scf|^2 =  4.392E-12

      iter #   9 total cpu time :    73.5 secs   av.it.:   8.8
      thresh= 2.096E-07 alpha_mix =  0.700 |ddv_scf|^2 =  7.255E-14

      iter #  10 total cpu time :    75.4 secs   av.it.:   9.9
      thresh= 2.694E-08 alpha_mix =  0.700 |ddv_scf|^2 =  1.679E-14

      iter #  11 total cpu time :    77.3 secs   av.it.:   9.4
      thresh= 1.296E-08 alpha_mix =  0.700 |ddv_scf|^2 =  3.056E-15

     End of self-consistent calculation

     Convergence has been achieved 


     Representation #   3 modes #   3   4

     Self-consistent Calculation

      iter #   1 total cpu time :    79.9 secs   av.it.:   5.2
      thresh= 1.000E-02 alpha_mix =  0.700 |ddv_scf|^2 =  1.037E-07

      iter #   2 total cpu time :    84.0 secs   av.it.:  11.2
      thresh= 3.221E-05 alpha_mix =  0.700 |ddv_scf|^2 =  7.879E-09

      iter #   3 total cpu time :    88.2 secs   av.it.:  11.2
      thresh= 8.876E-06 alpha_mix =  0.700 |ddv_scf|^2 =  5.954E-10

      iter #   4 total cpu time :    92.2 secs   av.it.:  11.1
      thresh= 2.440E-06 alpha_mix =  0.700 |ddv_scf|^2 =  1.516E-12

      iter #   5 total cpu time :    96.4 secs   av.it.:  11.3
      thresh= 1.231E-07 alpha_mix =  0.700 |ddv_scf|^2 =  6.872E-14

      iter #   6 total cpu time :   100.5 secs   av.it.:  11.3
      thresh= 2.621E-08 alpha_mix =  0.700 |ddv_scf|^2 =  8.857E-16

     End of self-consistent calculation

     Convergence has been achieved 


     Representation #   4 modes #   5   6

     Self-consistent Calculation

      iter #   1 total cpu time :   103.1 secs   av.it.:   5.2
      thresh= 1.000E-02 alpha_mix =  0.700 |ddv_scf|^2 =  1.037E-07

      iter #   2 total cpu time :   107.4 secs   av.it.:  10.9
      thresh= 3.220E-05 alpha_mix =  0.700 |ddv_scf|^2 =  7.862E-09

      iter #   3 total cpu time :   111.5 secs   av.it.:  10.9
      thresh= 8.867E-06 alpha_mix =  0.700 |ddv_scf|^2 =  5.941E-10

      iter #   4 total cpu time :   115.5 secs   av.it.:  10.9
      thresh= 2.437E-06 alpha_mix =  0.700 |ddv_scf|^2 =  1.519E-12

      iter #   5 total cpu time :   119.6 secs   av.it.:  11.0
      thresh= 1.233E-07 alpha_mix =  0.700 |ddv_scf|^2 =  6.873E-14

      iter #   6 total cpu time :   123.7 secs   av.it.:  11.0
      thresh= 2.622E-08 alpha_mix =  0.700 |ddv_scf|^2 =  8.883E-16

     End of self-consistent calculation

     Convergence has been achieved 

     Number of q in the star =    8
     List of q in the star:
          1  -0.250000000   0.250000000  -0.250000000
          2   0.250000000  -0.250000000  -0.250000000
          3   0.250000000  -0.250000000   0.250000000
          4   0.250000000   0.250000000   0.250000000
          5  -0.250000000  -0.250000000  -0.250000000
          6  -0.250000000  -0.250000000   0.250000000
          7  -0.250000000   0.250000000   0.250000000
          8   0.250000000   0.250000000  -0.250000000

     Diagonalizing the dynamical matrix

     q = (   -0.250000000   0.250000000  -0.250000000 ) 

 **************************************************************************
     freq (    1) =       2.805773 [THz] =      93.590506 [cm-1]
     freq (    2) =       2.805773 [THz] =      93.590506 [cm-1]
     freq (    3) =       7.034087 [THz] =     234.631900 [cm-1]
     freq (    4) =      14.766222 [THz] =     492.548144 [cm-1]
     freq (    5) =      15.121974 [THz] =     504.414768 [cm-1]
     freq (    6) =      15.121974 [THz] =     504.414768 [cm-1]
 **************************************************************************

     Mode symmetry, C_3v (3m)   point group:

     freq (   1-   2) =         93.6  [cm-1]   --> E    L_3           
     freq (   3-   3) =        234.6  [cm-1]   --> A_1  L_1           
     freq (   4-   4) =        492.5  [cm-1]   --> A_1  L_1           
     freq (   5-   6) =        504.4  [cm-1]   --> E    L_3           

     Calculation of q =    0.5000000  -0.5000000   0.5000000

     Parallelization info
     --------------------
     sticks:   dense  smooth     PW     G-vecs:    dense   smooth      PW
     Min          36      36     13                  496      496     116
     Max          37      37     14                  499      499     119
     Sum         433     433    163                 5961     5961    1411


     Title: 
     phonons of Si                                                              


     bravais-lattice index     =            2
     lattice parameter (alat)  =      10.2000  a.u.
     unit-cell volume          =     265.3020 (a.u.)^3
     number of atoms/cell      =            2
     number of atomic types    =            1
     number of electrons       =         8.00
     number of Kohn-Sham states=            4
     kinetic-energy cutoff     =      30.0000  Ry
     charge density cutoff     =     120.0000  Ry
     Exchange-correlation= PBE
                           (   1   4   3   4   0   0   0)

     celldm(1)=  10.200000  celldm(2)=   0.000000  celldm(3)=   0.000000
     celldm(4)=   0.000000  celldm(5)=   0.000000  celldm(6)=   0.000000

     crystal axes: (cart. coord. in units of alat)
               a(1) = (  -0.500000   0.000000   0.500000 )  
               a(2) = (   0.000000   0.500000   0.500000 )  
               a(3) = (  -0.500000   0.500000   0.000000 )  

     reciprocal axes: (cart. coord. in units 2 pi/alat)
               b(1) = ( -1.000000 -1.000000  1.000000 )  
               b(2) = (  1.000000  1.000000  1.000000 )  
               b(3) = ( -1.000000  1.000000 -1.000000 )  


     PseudoPot. # 1 for Si read from file:
     PP/Si.pbe-n-kjpaw_psl.0.1.UPF
     MD5 check sum: b9d333a40e496bef61db012f150758bf
     Pseudo is Projector augmented-wave + core cor, Zval =  4.0
     Generated using "atomic" code by A. Dal Corso  v.5.0.2 svn rev. 9415
     Shape of augmentation charge: PSQ
     Using radial grid of 1141 points,  4 beta functions with: 
                l(1) =   0
                l(2) =   0
                l(3) =   1
                l(4) =   1
     Q(r) pseudized with 0 coefficients 


     atomic species   valence    mass     pseudopotential
        Si             4.00    28.08600     Si( 1.00)

     48 Sym. Ops., with inversion, found



   Cartesian axes

     site n.     atom                  positions (alat units)
         1           Si  tau(   1) = (   0.0000000   0.0000000   0.0000000  )
         2           Si  tau(   2) = (   0.2500000   0.2500000   0.2500000  )

     number of k points=   292

     Number of k-points >= 100: set verbosity='high' to print them.

     Dense  grid:     5961 G-vectors     FFT dimensions: (  32,  32,  32)

     Estimated max dynamical RAM per process >       0.89 MB

     Estimated total dynamical RAM >      10.67 MB

     Check: negative core charge=   -0.000003

     The potential is recalculated from file :
     ./_ph0/silicon.save/charge-density

     Starting wfcs are    8 atomic wfcs
     Checking if some PAW data can be deallocated... 

     Band Structure Calculation
     Davidson diagonalization with overlap

     ethr =  1.25E-10,  avg # of iterations = 12.3

     total cpu time spent up to now is        7.5 secs

     End of band structure calculation

     Number of k-points >= 100: set verbosity='high' to print the bands.

     highest occupied level (ev):     6.4038

     Writing output data file ./_ph0/silicon.save/

     phonons of Si                                                              

     bravais-lattice index     =            2
     lattice parameter (alat)  =      10.2000  a.u.
     unit-cell volume          =     265.3020 (a.u.)^3
     number of atoms/cell      =            2
     number of atomic types    =            1
     kinetic-energy cut-off    =      30.0000  Ry
     charge density cut-off    =     120.0000  Ry
     convergence threshold     =      1.0E-14
     beta                      =       0.7000
     number of iterations used =            4
     Exchange-correlation= PBE
                           (   1   4   3   4   0   0   0)


     celldm(1)=   10.20000  celldm(2)=    0.00000  celldm(3)=    0.00000
     celldm(4)=    0.00000  celldm(5)=    0.00000  celldm(6)=    0.00000

     crystal axes: (cart. coord. in units of alat)
               a(1) = ( -0.5000  0.0000  0.5000 )  
               a(2) = (  0.0000  0.5000  0.5000 )  
               a(3) = ( -0.5000  0.5000  0.0000 )  

     reciprocal axes: (cart. coord. in units 2 pi/alat)
               b(1) = ( -1.0000 -1.0000  1.0000 )  
               b(2) = (  1.0000  1.0000  1.0000 )  
               b(3) = ( -1.0000  1.0000 -1.0000 )  


     Atoms inside the unit cell: 

     Cartesian axes

     site n.  atom      mass           positions (alat units)
        1     Si  28.0860   tau(    1) = (    0.00000    0.00000    0.00000  )
        2     Si  28.0860   tau(    2) = (    0.25000    0.25000    0.25000  )

     Computing dynamical matrix for 
                    q = (   0.5000000  -0.5000000   0.5000000 )

     13 Sym.Ops. (with q -> -q+G )


     G cutoff =  316.2437  (    497 G-vectors)     FFT grid: ( 32, 32, 32)
     number of k points=   292

     PseudoPot. # 1 for Si read from file:
     PP/Si.pbe-n-kjpaw_psl.0.1.UPF
     MD5 check sum: b9d333a40e496bef61db012f150758bf
     Pseudo is Projector augmented-wave + core cor, Zval =  4.0
     Generated using "atomic" code by A. Dal Corso  v.5.0.2 svn rev. 9415
     Shape of augmentation charge: PSQ
     Using radial grid of 1141 points,  4 beta functions with: 
                l(1) =   0
                l(2) =   0
                l(3) =   1
                l(4) =   1
     Q(r) pseudized with 0 coefficients 



     Atomic displacements:
     There are    4 irreducible representations

     Representation     1      1 modes -  To be done

     Representation     2      1 modes -  To be done

     Representation     3      2 modes -  To be done

     Representation     4      2 modes -  To be done



     Alpha used in Ewald sum =   1.3000
     PHONON       :   1m37.49s CPU   2m 8.08s WALL



     Representation #   1 mode #   1

     Self-consistent Calculation

      iter #   1 total cpu time :   128.9 secs   av.it.:   5.1
      thresh= 1.000E-02 alpha_mix =  0.700 |ddv_scf|^2 =  5.000E-06

      iter #   2 total cpu time :   130.1 secs   av.it.:   9.9
      thresh= 2.236E-04 alpha_mix =  0.700 |ddv_scf|^2 =  4.397E-06

      iter #   3 total cpu time :   131.2 secs   av.it.:   9.4
      thresh= 2.097E-04 alpha_mix =  0.700 |ddv_scf|^2 =  6.860E-09

      iter #   4 total cpu time :   132.3 secs   av.it.:   9.6
      thresh= 8.282E-06 alpha_mix =  0.700 |ddv_scf|^2 =  6.894E-11

      iter #   5 total cpu time :   133.4 secs   av.it.:   9.3
      thresh= 8.303E-07 alpha_mix =  0.700 |ddv_scf|^2 =  4.576E-13

      iter #   6 total cpu time :   134.5 secs   av.it.:   9.8
      thresh= 6.765E-08 alpha_mix =  0.700 |ddv_scf|^2 =  1.086E-14

      iter #   7 total cpu time :   135.6 secs   av.it.:   9.6
      thresh= 1.042E-08 alpha_mix =  0.700 |ddv_scf|^2 =  1.005E-16

     End of self-consistent calculation

     Convergence has been achieved 


     Representation #   2 mode #   2

     Self-consistent Calculation

      iter #   1 total cpu time :   136.5 secs   av.it.:   6.3
      thresh= 1.000E-02 alpha_mix =  0.700 |ddv_scf|^2 =  6.961E-05

      iter #   2 total cpu time :   137.6 secs   av.it.:  10.0
      thresh= 8.343E-04 alpha_mix =  0.700 |ddv_scf|^2 =  2.242E-04

      iter #   3 total cpu time :   138.6 secs   av.it.:   9.0
      thresh= 1.497E-03 alpha_mix =  0.700 |ddv_scf|^2 =  3.306E-08

      iter #   4 total cpu time :   139.8 secs   av.it.:   9.7
      thresh= 1.818E-05 alpha_mix =  0.700 |ddv_scf|^2 =  8.654E-10

      iter #   5 total cpu time :   141.0 secs   av.it.:  10.2
      thresh= 2.942E-06 alpha_mix =  0.700 |ddv_scf|^2 =  2.598E-11

      iter #   6 total cpu time :   142.1 secs   av.it.:  10.1
      thresh= 5.097E-07 alpha_mix =  0.700 |ddv_scf|^2 =  9.604E-13

      iter #   7 total cpu time :   143.3 secs   av.it.:   9.6
      thresh= 9.800E-08 alpha_mix =  0.700 |ddv_scf|^2 =  3.125E-15

     End of self-consistent calculation

     Convergence has been achieved 


     Representation #   3 modes #   3   4

     Self-consistent Calculation

      iter #   1 total cpu time :   145.1 secs   av.it.:   5.4
      thresh= 1.000E-02 alpha_mix =  0.700 |ddv_scf|^2 =  1.737E-07

      iter #   2 total cpu time :   147.4 secs   av.it.:  11.1
      thresh= 4.168E-05 alpha_mix =  0.700 |ddv_scf|^2 =  1.561E-08

      iter #   3 total cpu time :   149.7 secs   av.it.:  11.2
      thresh= 1.249E-05 alpha_mix =  0.700 |ddv_scf|^2 =  9.192E-10

      iter #   4 total cpu time :   152.0 secs   av.it.:  10.8
      thresh= 3.032E-06 alpha_mix =  0.700 |ddv_scf|^2 =  9.551E-13

      iter #   5 total cpu time :   154.3 secs   av.it.:  10.9
      thresh= 9.773E-08 alpha_mix =  0.700 |ddv_scf|^2 =  4.738E-15

     End of self-consistent calculation

     Convergence has been achieved 


     Representation #   4 modes #   5   6

     Self-consistent Calculation

      iter #   1 total cpu time :   155.9 secs   av.it.:   4.8
      thresh= 1.000E-02 alpha_mix =  0.700 |ddv_scf|^2 =  6.858E-08

      iter #   2 total cpu time :   158.1 secs   av.it.:  10.4
      thresh= 2.619E-05 alpha_mix =  0.700 |ddv_scf|^2 =  4.825E-09

      iter #   3 total cpu time :   160.6 secs   av.it.:  10.2
      thresh= 6.946E-06 alpha_mix =  0.700 |ddv_scf|^2 =  3.496E-11

      iter #   4 total cpu time :   162.8 secs   av.it.:  10.6
      thresh= 5.913E-07 alpha_mix =  0.700 |ddv_scf|^2 =  9.321E-13

      iter #   5 total cpu time :   165.0 secs   av.it.:  10.7
      thresh= 9.655E-08 alpha_mix =  0.700 |ddv_scf|^2 =  1.568E-14

      iter #   6 total cpu time :   167.3 secs   av.it.:  10.8
      thresh= 1.252E-08 alpha_mix =  0.700 |ddv_scf|^2 =  9.259E-17

     End of self-consistent calculation

     Convergence has been achieved 

     Number of q in the star =    4
     List of q in the star:
          1   0.500000000  -0.500000000   0.500000000
          2   0.500000000   0.500000000   0.500000000
          3  -0.500000000   0.500000000   0.500000000
          4   0.500000000   0.500000000  -0.500000000

     Diagonalizing the dynamical matrix

     q = (    0.500000000  -0.500000000   0.500000000 ) 

 **************************************************************************
     freq (    1) =       3.143576 [THz] =     104.858423 [cm-1]
     freq (    2) =       3.143576 [THz] =     104.858423 [cm-1]
     freq (    3) =      11.257581 [THz] =     375.512490 [cm-1]
     freq (    4) =      12.718873 [THz] =     424.255922 [cm-1]
     freq (    5) =      14.967427 [THz] =     499.259628 [cm-1]
     freq (    6) =      14.967427 [THz] =     499.259628 [cm-1]
 **************************************************************************

     Calculation of q =    0.0000000   0.5000000   0.0000000

     Parallelization info
     --------------------
     sticks:   dense  smooth     PW     G-vecs:    dense   smooth      PW
     Min          36      36     12                  496      496     102
     Max          37      37     13                  499      499     105
     Sum         433     433    151                 5961     5961    1243


     Title: 
     phonons of Si                                                              


     bravais-lattice index     =            2
     lattice parameter (alat)  =      10.2000  a.u.
     unit-cell volume          =     265.3020 (a.u.)^3
     number of atoms/cell      =            2
     number of atomic types    =            1
     number of electrons       =         8.00
     number of Kohn-Sham states=            4
     kinetic-energy cutoff     =      30.0000  Ry
     charge density cutoff     =     120.0000  Ry
     Exchange-correlation= PBE
                           (   1   4   3   4   0   0   0)

     celldm(1)=  10.200000  celldm(2)=   0.000000  celldm(3)=   0.000000
     celldm(4)=   0.000000  celldm(5)=   0.000000  celldm(6)=   0.000000

     crystal axes: (cart. coord. in units of alat)
               a(1) = (  -0.500000   0.000000   0.500000 )  
               a(2) = (   0.000000   0.500000   0.500000 )  
               a(3) = (  -0.500000   0.500000   0.000000 )  

     reciprocal axes: (cart. coord. in units 2 pi/alat)
               b(1) = ( -1.000000 -1.000000  1.000000 )  
               b(2) = (  1.000000  1.000000  1.000000 )  
               b(3) = ( -1.000000  1.000000 -1.000000 )  


     PseudoPot. # 1 for Si read from file:
     PP/Si.pbe-n-kjpaw_psl.0.1.UPF
     MD5 check sum: b9d333a40e496bef61db012f150758bf
     Pseudo is Projector augmented-wave + core cor, Zval =  4.0
     Generated using "atomic" code by A. Dal Corso  v.5.0.2 svn rev. 9415
     Shape of augmentation charge: PSQ
     Using radial grid of 1141 points,  4 beta functions with: 
                l(1) =   0
                l(2) =   0
                l(3) =   1
                l(4) =   1
     Q(r) pseudized with 0 coefficients 


     atomic species   valence    mass     pseudopotential
        Si             4.00    28.08600     Si( 1.00)

     48 Sym. Ops., with inversion, found



   Cartesian axes

     site n.     atom                  positions (alat units)
         1           Si  tau(   1) = (   0.0000000   0.0000000   0.0000000  )
         2           Si  tau(   2) = (   0.2500000   0.2500000   0.2500000  )

     number of k points=   462

     Number of k-points >= 100: set verbosity='high' to print them.

     Dense  grid:     5961 G-vectors     FFT dimensions: (  32,  32,  32)

     Estimated max dynamical RAM per process >       0.88 MB

     Estimated total dynamical RAM >      10.61 MB

     Check: negative core charge=   -0.000003

     The potential is recalculated from file :
     ./_ph0/silicon.save/charge-density

     Starting wfcs are    8 atomic wfcs
     Checking if some PAW data can be deallocated... 

     Band Structure Calculation
     Davidson diagonalization with overlap

     ethr =  1.25E-10,  avg # of iterations = 12.3

     total cpu time spent up to now is       11.3 secs

     End of band structure calculation

     Number of k-points >= 100: set verbosity='high' to print the bands.

     highest occupied level (ev):     6.4038

     Writing output data file ./_ph0/silicon.save/

     phonons of Si                                                              

     bravais-lattice index     =            2
     lattice parameter (alat)  =      10.2000  a.u.
     unit-cell volume          =     265.3020 (a.u.)^3
     number of atoms/cell      =            2
     number of atomic types    =            1
     kinetic-energy cut-off    =      30.0000  Ry
     charge density cut-off    =     120.0000  Ry
     convergence threshold     =      1.0E-14
     beta                      =       0.7000
     number of iterations used =            4
     Exchange-correlation= PBE
                           (   1   4   3   4   0   0   0)


     celldm(1)=   10.20000  celldm(2)=    0.00000  celldm(3)=    0.00000
     celldm(4)=    0.00000  celldm(5)=    0.00000  celldm(6)=    0.00000

     crystal axes: (cart. coord. in units of alat)
               a(1) = ( -0.5000  0.0000  0.5000 )  
               a(2) = (  0.0000  0.5000  0.5000 )  
               a(3) = ( -0.5000  0.5000  0.0000 )  

     reciprocal axes: (cart. coord. in units 2 pi/alat)
               b(1) = ( -1.0000 -1.0000  1.0000 )  
               b(2) = (  1.0000  1.0000  1.0000 )  
               b(3) = ( -1.0000  1.0000 -1.0000 )  


     Atoms inside the unit cell: 

     Cartesian axes

     site n.  atom      mass           positions (alat units)
        1     Si  28.0860   tau(    1) = (    0.00000    0.00000    0.00000  )
        2     Si  28.0860   tau(    2) = (    0.25000    0.25000    0.25000  )

     Computing dynamical matrix for 
                    q = (   0.0000000   0.5000000   0.0000000 )

      8 Sym.Ops. (no q -> -q+G )


     G cutoff =  316.2437  (    497 G-vectors)     FFT grid: ( 32, 32, 32)
     number of k points=   462

     PseudoPot. # 1 for Si read from file:
     PP/Si.pbe-n-kjpaw_psl.0.1.UPF
     MD5 check sum: b9d333a40e496bef61db012f150758bf
     Pseudo is Projector augmented-wave + core cor, Zval =  4.0
     Generated using "atomic" code by A. Dal Corso  v.5.0.2 svn rev. 9415
     Shape of augmentation charge: PSQ
     Using radial grid of 1141 points,  4 beta functions with: 
                l(1) =   0
                l(2) =   0
                l(3) =   1
                l(4) =   1
     Q(r) pseudized with 0 coefficients 


     Mode symmetry, C_4v (4mm)  point group:


     Atomic displacements:
     There are    4 irreducible representations

     Representation     1      1 modes -  To be done

     Representation     2      1 modes -  To be done

     Representation     3      2 modes -  To be done

     Representation     4      2 modes -  To be done



     Alpha used in Ewald sum =   1.3000
     PHONON       :   2m11.25s CPU   2m52.90s WALL



     Representation #   1 mode #   1

     Self-consistent Calculation

      iter #   1 total cpu time :   174.1 secs   av.it.:   6.2
      thresh= 1.000E-02 alpha_mix =  0.700 |ddv_scf|^2 =  5.999E-04

      iter #   2 total cpu time :   175.7 secs   av.it.:   9.3
      thresh= 2.449E-03 alpha_mix =  0.700 |ddv_scf|^2 =  7.995E-03

      iter #   3 total cpu time :   177.0 secs   av.it.:   7.5
      thresh= 8.942E-03 alpha_mix =  0.700 |ddv_scf|^2 =  1.410E-08

      iter #   4 total cpu time :   178.6 secs   av.it.:   9.6
      thresh= 1.187E-05 alpha_mix =  0.700 |ddv_scf|^2 =  1.162E-09

      iter #   5 total cpu time :   180.2 secs   av.it.:   9.5
      thresh= 3.409E-06 alpha_mix =  0.700 |ddv_scf|^2 =  1.179E-10

      iter #   6 total cpu time :   181.7 secs   av.it.:   9.4
      thresh= 1.086E-06 alpha_mix =  0.700 |ddv_scf|^2 =  1.227E-12

      iter #   7 total cpu time :   183.2 secs   av.it.:   9.3
      thresh= 1.108E-07 alpha_mix =  0.700 |ddv_scf|^2 =  2.953E-13

      iter #   8 total cpu time :   184.8 secs   av.it.:   8.4
      thresh= 5.434E-08 alpha_mix =  0.700 |ddv_scf|^2 =  5.429E-14

      iter #   9 total cpu time :   186.2 secs   av.it.:   8.0
      thresh= 2.330E-08 alpha_mix =  0.700 |ddv_scf|^2 =  3.944E-17

     End of self-consistent calculation

     Convergence has been achieved 


     Representation #   2 mode #   2

     Self-consistent Calculation

      iter #   1 total cpu time :   187.5 secs   av.it.:   5.2
      thresh= 1.000E-02 alpha_mix =  0.700 |ddv_scf|^2 =  1.012E-06

      iter #   2 total cpu time :   189.1 secs   av.it.:  10.1
      thresh= 1.006E-04 alpha_mix =  0.700 |ddv_scf|^2 =  2.478E-07

      iter #   3 total cpu time :   190.6 secs   av.it.:   9.8
      thresh= 4.978E-05 alpha_mix =  0.700 |ddv_scf|^2 =  7.346E-09

      iter #   4 total cpu time :   192.1 secs   av.it.:   9.7
      thresh= 8.571E-06 alpha_mix =  0.700 |ddv_scf|^2 =  7.480E-11

      iter #   5 total cpu time :   193.7 secs   av.it.:  10.1
      thresh= 8.649E-07 alpha_mix =  0.700 |ddv_scf|^2 =  9.851E-13

      iter #   6 total cpu time :   195.3 secs   av.it.:   9.7
      thresh= 9.925E-08 alpha_mix =  0.700 |ddv_scf|^2 =  6.175E-15

     End of self-consistent calculation

     Convergence has been achieved 


     Representation #   3 modes #   3   4

     Self-consistent Calculation

      iter #   1 total cpu time :   197.6 secs   av.it.:   5.4
      thresh= 1.000E-02 alpha_mix =  0.700 |ddv_scf|^2 =  2.089E-07

      iter #   2 total cpu time :   201.0 secs   av.it.:  11.1
      thresh= 4.570E-05 alpha_mix =  0.700 |ddv_scf|^2 =  2.865E-08

      iter #   3 total cpu time :   204.3 secs   av.it.:  11.0
      thresh= 1.693E-05 alpha_mix =  0.700 |ddv_scf|^2 =  1.233E-09

      iter #   4 total cpu time :   208.1 secs   av.it.:  10.8
      thresh= 3.511E-06 alpha_mix =  0.700 |ddv_scf|^2 =  1.729E-12

      iter #   5 total cpu time :   211.5 secs   av.it.:  11.1
      thresh= 1.315E-07 alpha_mix =  0.700 |ddv_scf|^2 =  3.064E-14

      iter #   6 total cpu time :   214.9 secs   av.it.:  10.9
      thresh= 1.750E-08 alpha_mix =  0.700 |ddv_scf|^2 =  7.513E-16

     End of self-consistent calculation

     Convergence has been achieved 


     Representation #   4 modes #   5   6

     Self-consistent Calculation

      iter #   1 total cpu time :   217.2 secs   av.it.:   5.2
      thresh= 1.000E-02 alpha_mix =  0.700 |ddv_scf|^2 =  1.570E-07

      iter #   2 total cpu time :   220.5 secs   av.it.:  11.1
      thresh= 3.963E-05 alpha_mix =  0.700 |ddv_scf|^2 =  2.017E-08

      iter #   3 total cpu time :   223.8 secs   av.it.:  11.0
      thresh= 1.420E-05 alpha_mix =  0.700 |ddv_scf|^2 =  1.190E-09

      iter #   4 total cpu time :   227.1 secs   av.it.:  10.9
      thresh= 3.449E-06 alpha_mix =  0.700 |ddv_scf|^2 =  1.904E-12

      iter #   5 total cpu time :   230.5 secs   av.it.:  11.1
      thresh= 1.380E-07 alpha_mix =  0.700 |ddv_scf|^2 =  2.585E-14

      iter #   6 total cpu time :   233.8 secs   av.it.:  10.8
      thresh= 1.608E-08 alpha_mix =  0.700 |ddv_scf|^2 =  7.577E-16

     End of self-consistent calculation

     Convergence has been achieved 

     Number of q in the star =    6
     List of q in the star:
          1   0.000000000   0.500000000   0.000000000
          2   0.000000000  -0.500000000   0.000000000
          3   0.500000000   0.000000000   0.000000000
          4   0.000000000   0.000000000   0.500000000
          5   0.000000000   0.000000000  -0.500000000
          6  -0.500000000   0.000000000   0.000000000

     Diagonalizing the dynamical matrix

     q = (    0.000000000   0.500000000   0.000000000 ) 

 **************************************************************************
     freq (    1) =       3.740036 [THz] =     124.754162 [cm-1]
     freq (    2) =       3.740036 [THz] =     124.754162 [cm-1]
     freq (    3) =       7.362254 [THz] =     245.578348 [cm-1]
     freq (    4) =      14.513683 [THz] =     484.124347 [cm-1]
     freq (    5) =      14.513683 [THz] =     484.124347 [cm-1]
     freq (    6) =      14.986951 [THz] =     499.910884 [cm-1]
 **************************************************************************

     Mode symmetry, C_4v (4mm)  point group:

     freq (   1-   2) =        124.8  [cm-1]   --> E    G_5 D_5       
     freq (   3-   3) =        245.6  [cm-1]   --> A_1  G_1 D_1       
     freq (   4-   5) =        484.1  [cm-1]   --> E    G_5 D_5       
     freq (   6-   6) =        499.9  [cm-1]   --> B_2  G_4 D_2'      

     Calculation of q =    0.7500000  -0.2500000   0.7500000

     Parallelization info
     --------------------
     sticks:   dense  smooth     PW     G-vecs:    dense   smooth      PW
     Min          36      36     13                  496      496     119
     Max          37      37     14                  499      499     123
     Sum         433     433    163                 5961     5961    1459


     Title: 
     phonons of Si                                                              


     bravais-lattice index     =            2
     lattice parameter (alat)  =      10.2000  a.u.
     unit-cell volume          =     265.3020 (a.u.)^3
     number of atoms/cell      =            2
     number of atomic types    =            1
     number of electrons       =         8.00
     number of Kohn-Sham states=            4
     kinetic-energy cutoff     =      30.0000  Ry
     charge density cutoff     =     120.0000  Ry
     Exchange-correlation= PBE
                           (   1   4   3   4   0   0   0)

     celldm(1)=  10.200000  celldm(2)=   0.000000  celldm(3)=   0.000000
     celldm(4)=   0.000000  celldm(5)=   0.000000  celldm(6)=   0.000000

     crystal axes: (cart. coord. in units of alat)
               a(1) = (  -0.500000   0.000000   0.500000 )  
               a(2) = (   0.000000   0.500000   0.500000 )  
               a(3) = (  -0.500000   0.500000   0.000000 )  

     reciprocal axes: (cart. coord. in units 2 pi/alat)
               b(1) = ( -1.000000 -1.000000  1.000000 )  
               b(2) = (  1.000000  1.000000  1.000000 )  
               b(3) = ( -1.000000  1.000000 -1.000000 )  


     PseudoPot. # 1 for Si read from file:
     PP/Si.pbe-n-kjpaw_psl.0.1.UPF
     MD5 check sum: b9d333a40e496bef61db012f150758bf
     Pseudo is Projector augmented-wave + core cor, Zval =  4.0
     Generated using "atomic" code by A. Dal Corso  v.5.0.2 svn rev. 9415
     Shape of augmentation charge: PSQ
     Using radial grid of 1141 points,  4 beta functions with: 
                l(1) =   0
                l(2) =   0
                l(3) =   1
                l(4) =   1
     Q(r) pseudized with 0 coefficients 


     atomic species   valence    mass     pseudopotential
        Si             4.00    28.08600     Si( 1.00)

     48 Sym. Ops., with inversion, found



   Cartesian axes

     site n.     atom                  positions (alat units)
         1           Si  tau(   1) = (   0.0000000   0.0000000   0.0000000  )
         2           Si  tau(   2) = (   0.2500000   0.2500000   0.2500000  )

     number of k points=  1452

     Number of k-points >= 100: set verbosity='high' to print them.

     Dense  grid:     5961 G-vectors     FFT dimensions: (  32,  32,  32)

     Estimated max dynamical RAM per process >       0.89 MB

     Estimated total dynamical RAM >      10.71 MB

     Check: negative core charge=   -0.000003

     The potential is recalculated from file :
     ./_ph0/silicon.save/charge-density

     Starting wfcs are    8 atomic wfcs
     Checking if some PAW data can be deallocated... 

     Band Structure Calculation
     Davidson diagonalization with overlap

     ethr =  1.25E-10,  avg # of iterations = 12.4

     total cpu time spent up to now is       22.8 secs

     End of band structure calculation

     Number of k-points >= 100: set verbosity='high' to print the bands.

     highest occupied level (ev):     6.4038

     Writing output data file ./_ph0/silicon.save/

     phonons of Si                                                              

     bravais-lattice index     =            2
     lattice parameter (alat)  =      10.2000  a.u.
     unit-cell volume          =     265.3020 (a.u.)^3
     number of atoms/cell      =            2
     number of atomic types    =            1
     kinetic-energy cut-off    =      30.0000  Ry
     charge density cut-off    =     120.0000  Ry
     convergence threshold     =      1.0E-14
     beta                      =       0.7000
     number of iterations used =            4
     Exchange-correlation= PBE
                           (   1   4   3   4   0   0   0)


     celldm(1)=   10.20000  celldm(2)=    0.00000  celldm(3)=    0.00000
     celldm(4)=    0.00000  celldm(5)=    0.00000  celldm(6)=    0.00000

     crystal axes: (cart. coord. in units of alat)
               a(1) = ( -0.5000  0.0000  0.5000 )  
               a(2) = (  0.0000  0.5000  0.5000 )  
               a(3) = ( -0.5000  0.5000  0.0000 )  

     reciprocal axes: (cart. coord. in units 2 pi/alat)
               b(1) = ( -1.0000 -1.0000  1.0000 )  
               b(2) = (  1.0000  1.0000  1.0000 )  
               b(3) = ( -1.0000  1.0000 -1.0000 )  


     Atoms inside the unit cell: 

     Cartesian axes

     site n.  atom      mass           positions (alat units)
        1     Si  28.0860   tau(    1) = (    0.00000    0.00000    0.00000  )
        2     Si  28.0860   tau(    2) = (    0.25000    0.25000    0.25000  )

     Computing dynamical matrix for 
                    q = (   0.7500000  -0.2500000   0.7500000 )

      2 Sym.Ops. (no q -> -q+G )


     G cutoff =  316.2437  (    497 G-vectors)     FFT grid: ( 32, 32, 32)
     number of k points=  1452

     PseudoPot. # 1 for Si read from file:
     PP/Si.pbe-n-kjpaw_psl.0.1.UPF
     MD5 check sum: b9d333a40e496bef61db012f150758bf
     Pseudo is Projector augmented-wave + core cor, Zval =  4.0
     Generated using "atomic" code by A. Dal Corso  v.5.0.2 svn rev. 9415
     Shape of augmentation charge: PSQ
     Using radial grid of 1141 points,  4 beta functions with: 
                l(1) =   0
                l(2) =   0
                l(3) =   1
                l(4) =   1
     Q(r) pseudized with 0 coefficients 


     Mode symmetry, C_s (m)     point group:


     Atomic displacements:
     There are    6 irreducible representations

     Representation     1      1 modes -  To be done

     Representation     2      1 modes -  To be done

     Representation     3      1 modes -  To be done

     Representation     4      1 modes -  To be done

     Representation     5      1 modes -  To be done

     Representation     6      1 modes -  To be done



     Alpha used in Ewald sum =   1.3000
     PHONON       :   3m10.25s CPU   4m 8.79s WALL



     Representation #   1 mode #   1

     Self-consistent Calculation

      iter #   1 total cpu time :   252.1 secs   av.it.:   6.1
      thresh= 1.000E-02 alpha_mix =  0.700 |ddv_scf|^2 =  2.455E-05

      iter #   2 total cpu time :   256.9 secs   av.it.:  10.5
      thresh= 4.955E-04 alpha_mix =  0.700 |ddv_scf|^2 =  7.121E-05

      iter #   3 total cpu time :   261.3 secs   av.it.:   9.4
      thresh= 8.439E-04 alpha_mix =  0.700 |ddv_scf|^2 =  2.707E-07

      iter #   4 total cpu time :   265.8 secs   av.it.:  10.0
      thresh= 5.203E-05 alpha_mix =  0.700 |ddv_scf|^2 =  1.086E-08

      iter #   5 total cpu time :   270.5 secs   av.it.:  10.2
      thresh= 1.042E-05 alpha_mix =  0.700 |ddv_scf|^2 =  5.343E-10

      iter #   6 total cpu time :   275.2 secs   av.it.:  10.4
      thresh= 2.311E-06 alpha_mix =  0.700 |ddv_scf|^2 =  1.311E-11

      iter #   7 total cpu time :   279.9 secs   av.it.:  10.3
      thresh= 3.621E-07 alpha_mix =  0.700 |ddv_scf|^2 =  3.330E-13

      iter #   8 total cpu time :   285.4 secs   av.it.:  10.6
      thresh= 5.770E-08 alpha_mix =  0.700 |ddv_scf|^2 =  2.280E-13

      iter #   9 total cpu time :   290.0 secs   av.it.:   9.9
      thresh= 4.775E-08 alpha_mix =  0.700 |ddv_scf|^2 =  6.283E-14

      iter #  10 total cpu time :   294.6 secs   av.it.:   9.9
      thresh= 2.507E-08 alpha_mix =  0.700 |ddv_scf|^2 =  6.443E-15

     End of self-consistent calculation

     Convergence has been achieved 


     Representation #   2 mode #   2

     Self-consistent Calculation

      iter #   1 total cpu time :   298.2 secs   av.it.:   6.0
      thresh= 1.000E-02 alpha_mix =  0.700 |ddv_scf|^2 =  1.491E-05

      iter #   2 total cpu time :   302.9 secs   av.it.:  10.5
      thresh= 3.862E-04 alpha_mix =  0.700 |ddv_scf|^2 =  4.222E-05

      iter #   3 total cpu time :   307.4 secs   av.it.:   9.3
      thresh= 6.498E-04 alpha_mix =  0.700 |ddv_scf|^2 =  1.404E-07

      iter #   4 total cpu time :   312.1 secs   av.it.:  10.2
      thresh= 3.746E-05 alpha_mix =  0.700 |ddv_scf|^2 =  7.249E-09

      iter #   5 total cpu time :   317.1 secs   av.it.:  10.3
      thresh= 8.514E-06 alpha_mix =  0.700 |ddv_scf|^2 =  1.045E-09

      iter #   6 total cpu time :   321.7 secs   av.it.:  10.1
      thresh= 3.232E-06 alpha_mix =  0.700 |ddv_scf|^2 =  1.816E-11

      iter #   7 total cpu time :   326.5 secs   av.it.:  10.4
      thresh= 4.262E-07 alpha_mix =  0.700 |ddv_scf|^2 =  4.697E-13

      iter #   8 total cpu time :   331.4 secs   av.it.:  10.7
      thresh= 6.853E-08 alpha_mix =  0.700 |ddv_scf|^2 =  9.578E-14

      iter #   9 total cpu time :   336.4 secs   av.it.:  10.3
      thresh= 3.095E-08 alpha_mix =  0.700 |ddv_scf|^2 =  1.007E-13

      iter #  10 total cpu time :   340.9 secs   av.it.:   9.5
      thresh= 3.173E-08 alpha_mix =  0.700 |ddv_scf|^2 =  1.387E-15

     End of self-consistent calculation

     Convergence has been achieved 


     Representation #   3 mode #   3

     Self-consistent Calculation

      iter #   1 total cpu time :   344.3 secs   av.it.:   5.9
      thresh= 1.000E-02 alpha_mix =  0.700 |ddv_scf|^2 =  1.438E-05

      iter #   2 total cpu time :   349.2 secs   av.it.:  10.7
      thresh= 3.792E-04 alpha_mix =  0.700 |ddv_scf|^2 =  3.781E-05

      iter #   3 total cpu time :   353.8 secs   av.it.:   9.6
      thresh= 6.149E-04 alpha_mix =  0.700 |ddv_scf|^2 =  3.491E-07

      iter #   4 total cpu time :   358.4 secs   av.it.:  10.0
      thresh= 5.909E-05 alpha_mix =  0.700 |ddv_scf|^2 =  9.041E-09

      iter #   5 total cpu time :   363.2 secs   av.it.:  10.2
      thresh= 9.508E-06 alpha_mix =  0.700 |ddv_scf|^2 =  4.849E-10

      iter #   6 total cpu time :   367.9 secs   av.it.:  10.3
      thresh= 2.202E-06 alpha_mix =  0.700 |ddv_scf|^2 =  7.435E-12

      iter #   7 total cpu time :   372.6 secs   av.it.:  10.3
      thresh= 2.727E-07 alpha_mix =  0.700 |ddv_scf|^2 =  2.421E-13

      iter #   8 total cpu time :   377.9 secs   av.it.:  10.7
      thresh= 4.920E-08 alpha_mix =  0.700 |ddv_scf|^2 =  1.900E-13

      iter #   9 total cpu time :   382.6 secs   av.it.:   9.9
      thresh= 4.359E-08 alpha_mix =  0.700 |ddv_scf|^2 =  4.487E-14

      iter #  10 total cpu time :   387.4 secs   av.it.:   9.9
      thresh= 2.118E-08 alpha_mix =  0.700 |ddv_scf|^2 =  3.383E-15

     End of self-consistent calculation

     Convergence has been achieved 


     Representation #   4 mode #   4

     Self-consistent Calculation

      iter #   1 total cpu time :   390.9 secs   av.it.:   5.7
      thresh= 1.000E-02 alpha_mix =  0.700 |ddv_scf|^2 =  4.732E-06

      iter #   2 total cpu time :   395.7 secs   av.it.:  10.7
      thresh= 2.175E-04 alpha_mix =  0.700 |ddv_scf|^2 =  8.768E-06

      iter #   3 total cpu time :   400.1 secs   av.it.:   9.6
      thresh= 2.961E-04 alpha_mix =  0.700 |ddv_scf|^2 =  2.649E-07

      iter #   4 total cpu time :   404.7 secs   av.it.:  10.0
      thresh= 5.146E-05 alpha_mix =  0.700 |ddv_scf|^2 =  1.139E-08

      iter #   5 total cpu time :   409.4 secs   av.it.:  10.2
      thresh= 1.067E-05 alpha_mix =  0.700 |ddv_scf|^2 =  2.187E-09

      iter #   6 total cpu time :   414.2 secs   av.it.:  10.1
      thresh= 4.677E-06 alpha_mix =  0.700 |ddv_scf|^2 =  1.107E-11

      iter #   7 total cpu time :   419.1 secs   av.it.:  10.5
      thresh= 3.328E-07 alpha_mix =  0.700 |ddv_scf|^2 =  3.868E-13

      iter #   8 total cpu time :   424.2 secs   av.it.:  10.6
      thresh= 6.220E-08 alpha_mix =  0.700 |ddv_scf|^2 =  3.137E-14

      iter #   9 total cpu time :   429.0 secs   av.it.:  10.6
      thresh= 1.771E-08 alpha_mix =  0.700 |ddv_scf|^2 =  2.986E-14

      iter #  10 total cpu time :   433.6 secs   av.it.:   9.7
      thresh= 1.728E-08 alpha_mix =  0.700 |ddv_scf|^2 =  1.852E-15

     End of self-consistent calculation

     Convergence has been achieved 


     Representation #   5 mode #   5

     Self-consistent Calculation

      iter #   1 total cpu time :   437.0 secs   av.it.:   5.3
      thresh= 1.000E-02 alpha_mix =  0.700 |ddv_scf|^2 =  8.580E-07

      iter #   2 total cpu time :   441.7 secs   av.it.:  10.3
      thresh= 9.263E-05 alpha_mix =  0.700 |ddv_scf|^2 =  1.372E-07

      iter #   3 total cpu time :   446.5 secs   av.it.:  10.0
      thresh= 3.704E-05 alpha_mix =  0.700 |ddv_scf|^2 =  5.338E-09

      iter #   4 total cpu time :   451.2 secs   av.it.:   9.9
      thresh= 7.306E-06 alpha_mix =  0.700 |ddv_scf|^2 =  7.259E-12

      iter #   5 total cpu time :   455.8 secs   av.it.:  10.1
      thresh= 2.694E-07 alpha_mix =  0.700 |ddv_scf|^2 =  1.441E-13

      iter #   6 total cpu time :   460.5 secs   av.it.:   9.8
      thresh= 3.795E-08 alpha_mix =  0.700 |ddv_scf|^2 =  2.203E-15

     End of self-consistent calculation

     Convergence has been achieved 


     Representation #   6 mode #   6

     Self-consistent Calculation

      iter #   1 total cpu time :   463.8 secs   av.it.:   5.3
      thresh= 1.000E-02 alpha_mix =  0.700 |ddv_scf|^2 =  8.580E-07

      iter #   2 total cpu time :   468.5 secs   av.it.:  10.3
      thresh= 9.263E-05 alpha_mix =  0.700 |ddv_scf|^2 =  1.372E-07

      iter #   3 total cpu time :   473.1 secs   av.it.:  10.0
      thresh= 3.704E-05 alpha_mix =  0.700 |ddv_scf|^2 =  5.337E-09

      iter #   4 total cpu time :   477.9 secs   av.it.:   9.9
      thresh= 7.306E-06 alpha_mix =  0.700 |ddv_scf|^2 =  7.259E-12

      iter #   5 total cpu time :   482.7 secs   av.it.:  10.1
      thresh= 2.694E-07 alpha_mix =  0.700 |ddv_scf|^2 =  1.441E-13

      iter #   6 total cpu time :   487.5 secs   av.it.:   9.8
      thresh= 3.796E-08 alpha_mix =  0.700 |ddv_scf|^2 =  2.202E-15

     End of self-consistent calculation

     Convergence has been achieved 

     Number of q in the star =   24
     List of q in the star:
          1   0.750000000  -0.250000000   0.750000000
          2   0.750000000  -0.250000000  -0.750000000
          3  -0.750000000  -0.250000000  -0.750000000
          4  -0.750000000  -0.250000000   0.750000000
          5  -0.750000000   0.250000000  -0.750000000
          6  -0.250000000   0.750000000  -0.750000000
          7  -0.750000000   0.750000000  -0.250000000
          8   0.750000000   0.250000000   0.750000000
          9  -0.750000000   0.250000000   0.750000000
         10   0.750000000   0.250000000  -0.750000000
         11  -0.750000000   0.750000000   0.250000000
         12  -0.250000000   0.750000000   0.750000000
         13   0.250000000   0.750000000  -0.750000000
         14  -0.250000000  -0.750000000  -0.750000000
         15   0.750000000   0.750000000  -0.250000000
         16   0.750000000  -0.750000000   0.250000000
         17  -0.750000000  -0.750000000  -0.250000000
         18   0.250000000  -0.750000000   0.750000000
         19  -0.750000000  -0.750000000   0.250000000
         20   0.250000000   0.750000000   0.750000000
         21  -0.250000000  -0.750000000   0.750000000
         22   0.750000000   0.750000000   0.250000000
         23   0.250000000  -0.750000000  -0.750000000
         24   0.750000000  -0.750000000  -0.250000000

     Diagonalizing the dynamical matrix

     q = (    0.750000000  -0.250000000   0.750000000 ) 

 **************************************************************************
     freq (    1) =       4.032050 [THz] =     134.494711 [cm-1]
     freq (    2) =       5.797640 [THz] =     193.388468 [cm-1]
     freq (    3) =       9.701558 [THz] =     323.609147 [cm-1]
     freq (    4) =      12.652783 [THz] =     422.051417 [cm-1]
     freq (    5) =      14.324576 [THz] =     477.816417 [cm-1]
     freq (    6) =      14.713839 [THz] =     490.800831 [cm-1]
 **************************************************************************

     Mode symmetry, C_s (m)     point group:

     freq (   1-   1) =        134.5  [cm-1]   --> A''                
     freq (   2-   2) =        193.4  [cm-1]   --> A'                 
     freq (   3-   3) =        323.6  [cm-1]   --> A'                 
     freq (   4-   4) =        422.1  [cm-1]   --> A'                 
     freq (   5-   5) =        477.8  [cm-1]   --> A''                
     freq (   6-   6) =        490.8  [cm-1]   --> A'                 

     Calculation of q =    0.5000000   0.0000000   0.5000000

     Parallelization info
     --------------------
     sticks:   dense  smooth     PW     G-vecs:    dense   smooth      PW
     Min          36      36     13                  496      496     113
     Max          37      37     14                  499      499     115
     Sum         433     433    163                 5961     5961    1363


     Title: 
     phonons of Si                                                              


     bravais-lattice index     =            2
     lattice parameter (alat)  =      10.2000  a.u.
     unit-cell volume          =     265.3020 (a.u.)^3
     number of atoms/cell      =            2
     number of atomic types    =            1
     number of electrons       =         8.00
     number of Kohn-Sham states=            4
     kinetic-energy cutoff     =      30.0000  Ry
     charge density cutoff     =     120.0000  Ry
     Exchange-correlation= PBE
                           (   1   4   3   4   0   0   0)

     celldm(1)=  10.200000  celldm(2)=   0.000000  celldm(3)=   0.000000
     celldm(4)=   0.000000  celldm(5)=   0.000000  celldm(6)=   0.000000

     crystal axes: (cart. coord. in units of alat)
               a(1) = (  -0.500000   0.000000   0.500000 )  
               a(2) = (   0.000000   0.500000   0.500000 )  
               a(3) = (  -0.500000   0.500000   0.000000 )  

     reciprocal axes: (cart. coord. in units 2 pi/alat)
               b(1) = ( -1.000000 -1.000000  1.000000 )  
               b(2) = (  1.000000  1.000000  1.000000 )  
               b(3) = ( -1.000000  1.000000 -1.000000 )  


     PseudoPot. # 1 for Si read from file:
     PP/Si.pbe-n-kjpaw_psl.0.1.UPF
     MD5 check sum: b9d333a40e496bef61db012f150758bf
     Pseudo is Projector augmented-wave + core cor, Zval =  4.0
     Generated using "atomic" code by A. Dal Corso  v.5.0.2 svn rev. 9415
     Shape of augmentation charge: PSQ
     Using radial grid of 1141 points,  4 beta functions with: 
                l(1) =   0
                l(2) =   0
                l(3) =   1
                l(4) =   1
     Q(r) pseudized with 0 coefficients 


     atomic species   valence    mass     pseudopotential
        Si             4.00    28.08600     Si( 1.00)

     48 Sym. Ops., with inversion, found



   Cartesian axes

     site n.     atom                  positions (alat units)
         1           Si  tau(   1) = (   0.0000000   0.0000000   0.0000000  )
         2           Si  tau(   2) = (   0.2500000   0.2500000   0.2500000  )

     number of k points=   792

     Number of k-points >= 100: set verbosity='high' to print them.

     Dense  grid:     5961 G-vectors     FFT dimensions: (  32,  32,  32)

     Estimated max dynamical RAM per process >       0.89 MB

     Estimated total dynamical RAM >      10.65 MB

     Check: negative core charge=   -0.000003

     The potential is recalculated from file :
     ./_ph0/silicon.save/charge-density

     Starting wfcs are    8 atomic wfcs
     Checking if some PAW data can be deallocated... 

     Band Structure Calculation
     Davidson diagonalization with overlap

     ethr =  1.25E-10,  avg # of iterations = 12.3

     total cpu time spent up to now is       29.7 secs

     End of band structure calculation

     Number of k-points >= 100: set verbosity='high' to print the bands.

     highest occupied level (ev):     6.4038

     Writing output data file ./_ph0/silicon.save/

     phonons of Si                                                              

     bravais-lattice index     =            2
     lattice parameter (alat)  =      10.2000  a.u.
     unit-cell volume          =     265.3020 (a.u.)^3
     number of atoms/cell      =            2
     number of atomic types    =            1
     kinetic-energy cut-off    =      30.0000  Ry
     charge density cut-off    =     120.0000  Ry
     convergence threshold     =      1.0E-14
     beta                      =       0.7000
     number of iterations used =            4
     Exchange-correlation= PBE
                           (   1   4   3   4   0   0   0)


     celldm(1)=   10.20000  celldm(2)=    0.00000  celldm(3)=    0.00000
     celldm(4)=    0.00000  celldm(5)=    0.00000  celldm(6)=    0.00000

     crystal axes: (cart. coord. in units of alat)
               a(1) = ( -0.5000  0.0000  0.5000 )  
               a(2) = (  0.0000  0.5000  0.5000 )  
               a(3) = ( -0.5000  0.5000  0.0000 )  

     reciprocal axes: (cart. coord. in units 2 pi/alat)
               b(1) = ( -1.0000 -1.0000  1.0000 )  
               b(2) = (  1.0000  1.0000  1.0000 )  
               b(3) = ( -1.0000  1.0000 -1.0000 )  


     Atoms inside the unit cell: 

     Cartesian axes

     site n.  atom      mass           positions (alat units)
        1     Si  28.0860   tau(    1) = (    0.00000    0.00000    0.00000  )
        2     Si  28.0860   tau(    2) = (    0.25000    0.25000    0.25000  )

     Computing dynamical matrix for 
                    q = (   0.5000000   0.0000000   0.5000000 )

      4 Sym.Ops. (no q -> -q+G )


     G cutoff =  316.2437  (    497 G-vectors)     FFT grid: ( 32, 32, 32)
     number of k points=   792

     PseudoPot. # 1 for Si read from file:
     PP/Si.pbe-n-kjpaw_psl.0.1.UPF
     MD5 check sum: b9d333a40e496bef61db012f150758bf
     Pseudo is Projector augmented-wave + core cor, Zval =  4.0
     Generated using "atomic" code by A. Dal Corso  v.5.0.2 svn rev. 9415
     Shape of augmentation charge: PSQ
     Using radial grid of 1141 points,  4 beta functions with: 
                l(1) =   0
                l(2) =   0
                l(3) =   1
                l(4) =   1
     Q(r) pseudized with 0 coefficients 


     Mode symmetry, C_2v (mm2)  point group:


     Atomic displacements:
     There are    6 irreducible representations

     Representation     1      1 modes -  To be done

     Representation     2      1 modes -  To be done

     Representation     3      1 modes -  To be done

     Representation     4      1 modes -  To be done

     Representation     5      1 modes -  To be done

     Representation     6      1 modes -  To be done



     Alpha used in Ewald sum =   1.3000
     PHONON       :   6m28.21s CPU   8m16.95s WALL



     Representation #   1 mode #   1

     Self-consistent Calculation

      iter #   1 total cpu time :   498.9 secs   av.it.:   6.1
      thresh= 1.000E-02 alpha_mix =  0.700 |ddv_scf|^2 =  7.892E-05

      iter #   2 total cpu time :   501.6 secs   av.it.:  10.0
      thresh= 8.884E-04 alpha_mix =  0.700 |ddv_scf|^2 =  4.190E-04

      iter #   3 total cpu time :   503.9 secs   av.it.:   8.7
      thresh= 2.047E-03 alpha_mix =  0.700 |ddv_scf|^2 =  5.834E-08

      iter #   4 total cpu time :   506.6 secs   av.it.:  10.2
      thresh= 2.415E-05 alpha_mix =  0.700 |ddv_scf|^2 =  7.224E-09

      iter #   5 total cpu time :   509.3 secs   av.it.:  10.0
      thresh= 8.499E-06 alpha_mix =  0.700 |ddv_scf|^2 =  6.180E-11

      iter #   6 total cpu time :   511.8 secs   av.it.:   9.9
      thresh= 7.861E-07 alpha_mix =  0.700 |ddv_scf|^2 =  1.585E-12

      iter #   7 total cpu time :   514.5 secs   av.it.:  10.0
      thresh= 1.259E-07 alpha_mix =  0.700 |ddv_scf|^2 =  2.229E-12

      iter #   8 total cpu time :   516.9 secs   av.it.:   8.8
      thresh= 1.493E-07 alpha_mix =  0.700 |ddv_scf|^2 =  1.306E-14

      iter #   9 total cpu time :   519.5 secs   av.it.:   9.6
      thresh= 1.143E-08 alpha_mix =  0.700 |ddv_scf|^2 =  5.387E-16

     End of self-consistent calculation

     Convergence has been achieved 


     Representation #   2 mode #   2

     Self-consistent Calculation

      iter #   1 total cpu time :   521.6 secs   av.it.:   6.1
      thresh= 1.000E-02 alpha_mix =  0.700 |ddv_scf|^2 =  4.262E-05

      iter #   2 total cpu time :   524.3 secs   av.it.:  10.2
      thresh= 6.528E-04 alpha_mix =  0.700 |ddv_scf|^2 =  2.213E-04

      iter #   3 total cpu time :   526.6 secs   av.it.:   8.7
      thresh= 1.487E-03 alpha_mix =  0.700 |ddv_scf|^2 =  2.271E-07

      iter #   4 total cpu time :   529.2 secs   av.it.:  10.0
      thresh= 4.766E-05 alpha_mix =  0.700 |ddv_scf|^2 =  5.892E-09

      iter #   5 total cpu time :   532.3 secs   av.it.:   9.9
      thresh= 7.676E-06 alpha_mix =  0.700 |ddv_scf|^2 =  2.386E-11

      iter #   6 total cpu time :   534.8 secs   av.it.:   9.8
      thresh= 4.885E-07 alpha_mix =  0.700 |ddv_scf|^2 =  1.715E-12

      iter #   7 total cpu time :   537.5 secs   av.it.:   9.9
      thresh= 1.310E-07 alpha_mix =  0.700 |ddv_scf|^2 =  3.474E-12

      iter #   8 total cpu time :   539.9 secs   av.it.:   9.0
      thresh= 1.864E-07 alpha_mix =  0.700 |ddv_scf|^2 =  6.131E-13

      iter #   9 total cpu time :   542.4 secs   av.it.:   9.1
      thresh= 7.830E-08 alpha_mix =  0.700 |ddv_scf|^2 =  3.579E-14

      iter #  10 total cpu time :   545.0 secs   av.it.:   9.6
      thresh= 1.892E-08 alpha_mix =  0.700 |ddv_scf|^2 =  5.785E-16

     End of self-consistent calculation

     Convergence has been achieved 


     Representation #   3 mode #   3

     Self-consistent Calculation

      iter #   1 total cpu time :   546.9 secs   av.it.:   5.5
      thresh= 1.000E-02 alpha_mix =  0.700 |ddv_scf|^2 =  7.969E-07

      iter #   2 total cpu time :   549.5 secs   av.it.:   9.9
      thresh= 8.927E-05 alpha_mix =  0.700 |ddv_scf|^2 =  8.366E-08

      iter #   3 total cpu time :   552.1 secs   av.it.:   9.9
      thresh= 2.892E-05 alpha_mix =  0.700 |ddv_scf|^2 =  4.164E-09

      iter #   4 total cpu time :   554.6 secs   av.it.:   9.6
      thresh= 6.453E-06 alpha_mix =  0.700 |ddv_scf|^2 =  4.036E-12

      iter #   5 total cpu time :   557.1 secs   av.it.:   9.5
      thresh= 2.009E-07 alpha_mix =  0.700 |ddv_scf|^2 =  3.801E-14

      iter #   6 total cpu time :   559.6 secs   av.it.:   9.1
      thresh= 1.950E-08 alpha_mix =  0.700 |ddv_scf|^2 =  7.397E-16

     End of self-consistent calculation

     Convergence has been achieved 


     Representation #   4 mode #   4

     Self-consistent Calculation

      iter #   1 total cpu time :   561.5 secs   av.it.:   4.8
      thresh= 1.000E-02 alpha_mix =  0.700 |ddv_scf|^2 =  2.559E-07

      iter #   2 total cpu time :   563.9 secs   av.it.:   9.4
      thresh= 5.059E-05 alpha_mix =  0.700 |ddv_scf|^2 =  1.924E-08

      iter #   3 total cpu time :   566.7 secs   av.it.:   9.5
      thresh= 1.387E-05 alpha_mix =  0.700 |ddv_scf|^2 =  4.282E-11

      iter #   4 total cpu time :   569.2 secs   av.it.:   9.8
      thresh= 6.544E-07 alpha_mix =  0.700 |ddv_scf|^2 =  1.726E-12

      iter #   5 total cpu time :   571.8 secs   av.it.:   9.8
      thresh= 1.314E-07 alpha_mix =  0.700 |ddv_scf|^2 =  1.806E-14

      iter #   6 total cpu time :   574.4 secs   av.it.:   9.6
      thresh= 1.344E-08 alpha_mix =  0.700 |ddv_scf|^2 =  8.529E-17

     End of self-consistent calculation

     Convergence has been achieved 


     Representation #   5 mode #   5

     Self-consistent Calculation

      iter #   1 total cpu time :   576.6 secs   av.it.:   5.7
      thresh= 1.000E-02 alpha_mix =  0.700 |ddv_scf|^2 =  3.631E-06

      iter #   2 total cpu time :   579.3 secs   av.it.:  10.5
      thresh= 1.906E-04 alpha_mix =  0.700 |ddv_scf|^2 =  2.612E-06

      iter #   3 total cpu time :   581.9 secs   av.it.:   9.9
      thresh= 1.616E-04 alpha_mix =  0.700 |ddv_scf|^2 =  1.049E-08

      iter #   4 total cpu time :   584.5 secs   av.it.:  10.0
      thresh= 1.024E-05 alpha_mix =  0.700 |ddv_scf|^2 =  2.236E-10

      iter #   5 total cpu time :   587.2 secs   av.it.:  10.3
      thresh= 1.495E-06 alpha_mix =  0.700 |ddv_scf|^2 =  2.199E-12

      iter #   6 total cpu time :   589.9 secs   av.it.:  10.4
      thresh= 1.483E-07 alpha_mix =  0.700 |ddv_scf|^2 =  3.036E-14

      iter #   7 total cpu time :   592.4 secs   av.it.:   9.7
      thresh= 1.742E-08 alpha_mix =  0.700 |ddv_scf|^2 =  1.320E-15

     End of self-consistent calculation

     Convergence has been achieved 


     Representation #   6 mode #   6

     Self-consistent Calculation

      iter #   1 total cpu time :   594.3 secs   av.it.:   5.1
      thresh= 1.000E-02 alpha_mix =  0.700 |ddv_scf|^2 =  1.257E-06

      iter #   2 total cpu time :   597.2 secs   av.it.:  10.5
      thresh= 1.121E-04 alpha_mix =  0.700 |ddv_scf|^2 =  7.977E-07

      iter #   3 total cpu time :   599.8 secs   av.it.:   9.9
      thresh= 8.931E-05 alpha_mix =  0.700 |ddv_scf|^2 =  1.052E-08

      iter #   4 total cpu time :   602.6 secs   av.it.:  10.0
      thresh= 1.026E-05 alpha_mix =  0.700 |ddv_scf|^2 =  9.100E-11

      iter #   5 total cpu time :   605.3 secs   av.it.:  10.4
      thresh= 9.539E-07 alpha_mix =  0.700 |ddv_scf|^2 =  2.866E-12

      iter #   6 total cpu time :   608.0 secs   av.it.:  10.5
      thresh= 1.693E-07 alpha_mix =  0.700 |ddv_scf|^2 =  2.828E-14

      iter #   7 total cpu time :   610.6 secs   av.it.:   9.8
      thresh= 1.682E-08 alpha_mix =  0.700 |ddv_scf|^2 =  1.553E-15

     End of self-consistent calculation

     Convergence has been achieved 

     Number of q in the star =   12
     List of q in the star:
          1   0.500000000   0.000000000   0.500000000
          2  -0.500000000   0.000000000   0.500000000
          3  -0.500000000   0.000000000  -0.500000000
          4   0.500000000   0.000000000  -0.500000000
          5   0.000000000   0.500000000  -0.500000000
          6  -0.500000000   0.500000000   0.000000000
          7   0.000000000   0.500000000   0.500000000
          8   0.000000000  -0.500000000  -0.500000000
          9   0.500000000   0.500000000   0.000000000
         10   0.500000000  -0.500000000   0.000000000
         11  -0.500000000  -0.500000000   0.000000000
         12   0.000000000  -0.500000000   0.500000000

     Diagonalizing the dynamical matrix

     q = (    0.500000000   0.000000000   0.500000000 ) 

 **************************************************************************
     freq (    1) =       4.017587 [THz] =     134.012282 [cm-1]
     freq (    2) =       5.761623 [THz] =     192.187049 [cm-1]
     freq (    3) =       8.626859 [THz] =     287.761031 [cm-1]
     freq (    4) =      12.847254 [THz] =     428.538250 [cm-1]
     freq (    5) =      14.502816 [THz] =     483.761864 [cm-1]
     freq (    6) =      14.959648 [THz] =     499.000155 [cm-1]
 **************************************************************************

     Mode symmetry, C_2v (mm2)  point group:

     freq (   1-   1) =        134.0  [cm-1]   --> B_1  D_3  S_3      
     freq (   2-   2) =        192.2  [cm-1]   --> B_2  D_4  S_4      
     freq (   3-   3) =        287.8  [cm-1]   --> A_1  D_1  S_1      
     freq (   4-   4) =        428.5  [cm-1]   --> B_2  D_4  S_4      
     freq (   5-   5) =        483.8  [cm-1]   --> A_2  D_2  S_2      
     freq (   6-   6) =        499.0  [cm-1]   --> A_1  D_1  S_1      

     Calculation of q =    0.0000000  -1.0000000   0.0000000

     Parallelization info
     --------------------
     sticks:   dense  smooth     PW     G-vecs:    dense   smooth      PW
     Min          36      36     12                  496      496     102
     Max          37      37     13                  499      499     105
     Sum         433     433    151                 5961     5961    1243


     Title: 
     phonons of Si                                                              


     bravais-lattice index     =            2
     lattice parameter (alat)  =      10.2000  a.u.
     unit-cell volume          =     265.3020 (a.u.)^3
     number of atoms/cell      =            2
     number of atomic types    =            1
     number of electrons       =         8.00
     number of Kohn-Sham states=            4
     kinetic-energy cutoff     =      30.0000  Ry
     charge density cutoff     =     120.0000  Ry
     Exchange-correlation= PBE
                           (   1   4   3   4   0   0   0)

     celldm(1)=  10.200000  celldm(2)=   0.000000  celldm(3)=   0.000000
     celldm(4)=   0.000000  celldm(5)=   0.000000  celldm(6)=   0.000000

     crystal axes: (cart. coord. in units of alat)
               a(1) = (  -0.500000   0.000000   0.500000 )  
               a(2) = (   0.000000   0.500000   0.500000 )  
               a(3) = (  -0.500000   0.500000   0.000000 )  

     reciprocal axes: (cart. coord. in units 2 pi/alat)
               b(1) = ( -1.000000 -1.000000  1.000000 )  
               b(2) = (  1.000000  1.000000  1.000000 )  
               b(3) = ( -1.000000  1.000000 -1.000000 )  


     PseudoPot. # 1 for Si read from file:
     PP/Si.pbe-n-kjpaw_psl.0.1.UPF
     MD5 check sum: b9d333a40e496bef61db012f150758bf
     Pseudo is Projector augmented-wave + core cor, Zval =  4.0
     Generated using "atomic" code by A. Dal Corso  v.5.0.2 svn rev. 9415
     Shape of augmentation charge: PSQ
     Using radial grid of 1141 points,  4 beta functions with: 
                l(1) =   0
                l(2) =   0
                l(3) =   1
                l(4) =   1
     Q(r) pseudized with 0 coefficients 


     atomic species   valence    mass     pseudopotential
        Si             4.00    28.08600     Si( 1.00)

     48 Sym. Ops., with inversion, found



   Cartesian axes

     site n.     atom                  positions (alat units)
         1           Si  tau(   1) = (   0.0000000   0.0000000   0.0000000  )
         2           Si  tau(   2) = (   0.2500000   0.2500000   0.2500000  )

     number of k points=   252

     Number of k-points >= 100: set verbosity='high' to print them.

     Dense  grid:     5961 G-vectors     FFT dimensions: (  32,  32,  32)

[...]



     Atomic displacements:
     There are    3 irreducible representations

     Representation     1      2 modes -  To be done

     Representation     2      2 modes -  To be done

     Representation     3      2 modes -  To be done



     Alpha used in Ewald sum =   1.3000
     PHONON       :   8m 0.62s CPU  10m14.43s WALL



     Representation #   1 modes #   1   2

     Self-consistent Calculation

      iter #   1 total cpu time :   616.6 secs   av.it.:   5.8
      thresh= 1.000E-02 alpha_mix =  0.700 |ddv_scf|^2 =  5.834E-07

      iter #   2 total cpu time :   618.7 secs   av.it.:  11.2
      thresh= 7.638E-05 alpha_mix =  0.700 |ddv_scf|^2 =  1.500E-07

      iter #   3 total cpu time :   620.6 secs   av.it.:  10.8
      thresh= 3.873E-05 alpha_mix =  0.700 |ddv_scf|^2 =  1.693E-09

      iter #   4 total cpu time :   622.6 secs   av.it.:  10.5
      thresh= 4.115E-06 alpha_mix =  0.700 |ddv_scf|^2 =  1.234E-12

      iter #   5 total cpu time :   624.6 secs   av.it.:  10.2
      thresh= 1.111E-07 alpha_mix =  0.700 |ddv_scf|^2 =  2.410E-14

      iter #   6 total cpu time :   626.5 secs   av.it.:  10.2
      thresh= 1.552E-08 alpha_mix =  0.700 |ddv_scf|^2 =  1.564E-16

     End of self-consistent calculation

     Convergence has been achieved 


     Representation #   2 modes #   3   4

     Self-consistent Calculation

      iter #   1 total cpu time :   628.1 secs   av.it.:   6.0
      thresh= 1.000E-02 alpha_mix =  0.700 |ddv_scf|^2 =  3.331E-06

      iter #   2 total cpu time :   630.1 secs   av.it.:  11.0
      thresh= 1.825E-04 alpha_mix =  0.700 |ddv_scf|^2 =  4.605E-06

      iter #   3 total cpu time :   632.0 secs   av.it.:  10.3
      thresh= 2.146E-04 alpha_mix =  0.700 |ddv_scf|^2 =  3.171E-09

      iter #   4 total cpu time :   633.9 secs   av.it.:  10.6
      thresh= 5.631E-06 alpha_mix =  0.700 |ddv_scf|^2 =  9.753E-11

      iter #   5 total cpu time :   636.1 secs   av.it.:  11.0
      thresh= 9.876E-07 alpha_mix =  0.700 |ddv_scf|^2 =  1.399E-12

      iter #   6 total cpu time :   638.1 secs   av.it.:  10.8
      thresh= 1.183E-07 alpha_mix =  0.700 |ddv_scf|^2 =  3.233E-14

      iter #   7 total cpu time :   640.1 secs   av.it.:  10.6
      thresh= 1.798E-08 alpha_mix =  0.700 |ddv_scf|^2 =  5.286E-16

     End of self-consistent calculation

     Convergence has been achieved 


     Representation #   3 modes #   5   6

     Self-consistent Calculation

      iter #   1 total cpu time :   641.4 secs   av.it.:   4.3
      thresh= 1.000E-02 alpha_mix =  0.700 |ddv_scf|^2 =  6.417E-08

      iter #   2 total cpu time :   643.3 secs   av.it.:  10.5
      thresh= 2.533E-05 alpha_mix =  0.700 |ddv_scf|^2 =  4.307E-09

      iter #   3 total cpu time :   645.2 secs   av.it.:  10.3
      thresh= 6.563E-06 alpha_mix =  0.700 |ddv_scf|^2 =  2.067E-11

      iter #   4 total cpu time :   647.4 secs   av.it.:  10.7
      thresh= 4.546E-07 alpha_mix =  0.700 |ddv_scf|^2 =  2.319E-13

      iter #   5 total cpu time :   649.4 secs   av.it.:  10.8
      thresh= 4.815E-08 alpha_mix =  0.700 |ddv_scf|^2 =  8.764E-16

     End of self-consistent calculation

     Convergence has been achieved 

     Number of q in the star =    3
     List of q in the star:
          1   0.000000000  -1.000000000   0.000000000
          2  -1.000000000   0.000000000   0.000000000
          3   0.000000000   0.000000000  -1.000000000

     Diagonalizing the dynamical matrix

     q = (    0.000000000  -1.000000000   0.000000000 ) 

 **************************************************************************
     freq (    1) =       4.064928 [THz] =     135.591410 [cm-1]
     freq (    2) =       4.064928 [THz] =     135.591410 [cm-1]
     freq (    3) =      12.468015 [THz] =     415.888219 [cm-1]
     freq (    4) =      12.468015 [THz] =     415.888219 [cm-1]
     freq (    5) =      14.167640 [THz] =     472.581588 [cm-1]
     freq (    6) =      14.167640 [THz] =     472.581588 [cm-1]
 **************************************************************************

     Calculation of q =   -0.5000000  -1.0000000   0.0000000

     Parallelization info
     --------------------
     sticks:   dense  smooth     PW     G-vecs:    dense   smooth      PW
     Min          36      36     13                  496      496     113
     Max          37      37     14                  499      499     115
     Sum         433     433    163                 5961     5961    1363


     Title: 
     phonons of Si                                                              


     bravais-lattice index     =            2
     lattice parameter (alat)  =      10.2000  a.u.
     unit-cell volume          =     265.3020 (a.u.)^3
     number of atoms/cell      =            2
     number of atomic types    =            1
     number of electrons       =         8.00
     number of Kohn-Sham states=            4
     kinetic-energy cutoff     =      30.0000  Ry
     charge density cutoff     =     120.0000  Ry
     Exchange-correlation= PBE
                           (   1   4   3   4   0   0   0)

     celldm(1)=  10.200000  celldm(2)=   0.000000  celldm(3)=   0.000000
     celldm(4)=   0.000000  celldm(5)=   0.000000  celldm(6)=   0.000000

     crystal axes: (cart. coord. in units of alat)
               a(1) = (  -0.500000   0.000000   0.500000 )  
               a(2) = (   0.000000   0.500000   0.500000 )  
               a(3) = (  -0.500000   0.500000   0.000000 )  

     reciprocal axes: (cart. coord. in units 2 pi/alat)
               b(1) = ( -1.000000 -1.000000  1.000000 )  
               b(2) = (  1.000000  1.000000  1.000000 )  
               b(3) = ( -1.000000  1.000000 -1.000000 )  


     PseudoPot. # 1 for Si read from file:
     PP/Si.pbe-n-kjpaw_psl.0.1.UPF
     MD5 check sum: b9d333a40e496bef61db012f150758bf
     Pseudo is Projector augmented-wave + core cor, Zval =  4.0
     Generated using "atomic" code by A. Dal Corso  v.5.0.2 svn rev. 9415
     Shape of augmentation charge: PSQ
     Using radial grid of 1141 points,  4 beta functions with: 
                l(1) =   0
                l(2) =   0
                l(3) =   1
                l(4) =   1
     Q(r) pseudized with 0 coefficients 


     atomic species   valence    mass     pseudopotential
        Si             4.00    28.08600     Si( 1.00)

     48 Sym. Ops., with inversion, found



   Cartesian axes

     site n.     atom                  positions (alat units)
         1           Si  tau(   1) = (   0.0000000   0.0000000   0.0000000  )
         2           Si  tau(   2) = (   0.2500000   0.2500000   0.2500000  )

     number of k points=   402

     Number of k-points >= 100: set verbosity='high' to print them.

     Dense  grid:     5961 G-vectors     FFT dimensions: (  32,  32,  32)

     Estimated max dynamical RAM per process >       0.89 MB

     Estimated total dynamical RAM >      10.72 MB

     Check: negative core charge=   -0.000003

     The potential is recalculated from file :
     ./_ph0/silicon.save/charge-density

     Starting wfcs are    8 atomic wfcs
     Checking if some PAW data can be deallocated... 

     Band Structure Calculation
     Davidson diagonalization with overlap

     ethr =  1.25E-10,  avg # of iterations = 12.4

     total cpu time spent up to now is       35.5 secs

     End of band structure calculation

     Number of k-points >= 100: set verbosity='high' to print the bands.

     highest occupied level (ev):     6.4038

     Writing output data file ./_ph0/silicon.save/

     phonons of Si                                                              

     bravais-lattice index     =            2
     lattice parameter (alat)  =      10.2000  a.u.
     unit-cell volume          =     265.3020 (a.u.)^3
     number of atoms/cell      =            2
     number of atomic types    =            1
     kinetic-energy cut-off    =      30.0000  Ry
     charge density cut-off    =     120.0000  Ry
     convergence threshold     =      1.0E-14
     beta                      =       0.7000
     number of iterations used =            4
     Exchange-correlation= PBE
                           (   1   4   3   4   0   0   0)


     celldm(1)=   10.20000  celldm(2)=    0.00000  celldm(3)=    0.00000
     celldm(4)=    0.00000  celldm(5)=    0.00000  celldm(6)=    0.00000

     crystal axes: (cart. coord. in units of alat)
               a(1) = ( -0.5000  0.0000  0.5000 )  
               a(2) = (  0.0000  0.5000  0.5000 )  
               a(3) = ( -0.5000  0.5000  0.0000 )  

     reciprocal axes: (cart. coord. in units 2 pi/alat)
               b(1) = ( -1.0000 -1.0000  1.0000 )  
               b(2) = (  1.0000  1.0000  1.0000 )  
               b(3) = ( -1.0000  1.0000 -1.0000 )  


     Atoms inside the unit cell: 

     Cartesian axes

     site n.  atom      mass           positions (alat units)
        1     Si  28.0860   tau(    1) = (    0.00000    0.00000    0.00000  )
        2     Si  28.0860   tau(    2) = (    0.25000    0.25000    0.25000  )

     Computing dynamical matrix for 
                    q = (  -0.5000000  -1.0000000   0.0000000 )

      8 Sym.Ops. (no q -> -q+G )


     G cutoff =  316.2437  (    497 G-vectors)     FFT grid: ( 32, 32, 32)
     number of k points=   402

     PseudoPot. # 1 for Si read from file:
     PP/Si.pbe-n-kjpaw_psl.0.1.UPF
     MD5 check sum: b9d333a40e496bef61db012f150758bf
     Pseudo is Projector augmented-wave + core cor, Zval =  4.0
     Generated using "atomic" code by A. Dal Corso  v.5.0.2 svn rev. 9415
     Shape of augmentation charge: PSQ
     Using radial grid of 1141 points,  4 beta functions with: 
                l(1) =   0
                l(2) =   0
                l(3) =   1
                l(4) =   1
     Q(r) pseudized with 0 coefficients 



     Atomic displacements:
     There are    3 irreducible representations

     Representation     1      2 modes -  To be done

     Representation     2      2 modes -  To be done

     Representation     3      2 modes -  To be done



     Alpha used in Ewald sum =   1.3000
     PHONON       :   8m30.90s CPU  10m54.79s WALL



     Representation #   1 modes #   1   2

     Self-consistent Calculation

      iter #   1 total cpu time :   658.2 secs   av.it.:   5.9
      thresh= 1.000E-02 alpha_mix =  0.700 |ddv_scf|^2 =  1.922E-06

      iter #   2 total cpu time :   661.4 secs   av.it.:  11.5
      thresh= 1.386E-04 alpha_mix =  0.700 |ddv_scf|^2 =  2.540E-06

      iter #   3 total cpu time :   664.3 secs   av.it.:  10.8
      thresh= 1.594E-04 alpha_mix =  0.700 |ddv_scf|^2 =  2.567E-09

      iter #   4 total cpu time :   667.2 secs   av.it.:  10.8
      thresh= 5.067E-06 alpha_mix =  0.700 |ddv_scf|^2 =  6.269E-12

      iter #   5 total cpu time :   670.2 secs   av.it.:  11.0
      thresh= 2.504E-07 alpha_mix =  0.700 |ddv_scf|^2 =  2.302E-13

      iter #   6 total cpu time :   673.2 secs   av.it.:  11.1
      thresh= 4.797E-08 alpha_mix =  0.700 |ddv_scf|^2 =  5.933E-15

     End of self-consistent calculation

     Convergence has been achieved 


     Representation #   2 modes #   3   4

     Self-consistent Calculation

      iter #   1 total cpu time :   675.3 secs   av.it.:   5.6
      thresh= 1.000E-02 alpha_mix =  0.700 |ddv_scf|^2 =  8.196E-07

      iter #   2 total cpu time :   678.4 secs   av.it.:  11.3
      thresh= 9.053E-05 alpha_mix =  0.700 |ddv_scf|^2 =  4.684E-07

      iter #   3 total cpu time :   681.4 secs   av.it.:  10.7
      thresh= 6.844E-05 alpha_mix =  0.700 |ddv_scf|^2 =  2.298E-09

      iter #   4 total cpu time :   684.2 secs   av.it.:  10.8
      thresh= 4.794E-06 alpha_mix =  0.700 |ddv_scf|^2 =  4.748E-12

      iter #   5 total cpu time :   687.6 secs   av.it.:  11.0
      thresh= 2.179E-07 alpha_mix =  0.700 |ddv_scf|^2 =  1.184E-13

      iter #   6 total cpu time :   690.7 secs   av.it.:  11.0
      thresh= 3.441E-08 alpha_mix =  0.700 |ddv_scf|^2 =  2.365E-15

     End of self-consistent calculation

     Convergence has been achieved 


     Representation #   3 modes #   5   6

     Self-consistent Calculation

      iter #   1 total cpu time :   692.8 secs   av.it.:   5.9
      thresh= 1.000E-02 alpha_mix =  0.700 |ddv_scf|^2 =  9.760E-07

      iter #   2 total cpu time :   695.9 secs   av.it.:  11.4
      thresh= 9.879E-05 alpha_mix =  0.700 |ddv_scf|^2 =  5.862E-07

      iter #   3 total cpu time :   698.8 secs   av.it.:  10.9
      thresh= 7.657E-05 alpha_mix =  0.700 |ddv_scf|^2 =  2.094E-09

      iter #   4 total cpu time :   701.7 secs   av.it.:  10.8
      thresh= 4.575E-06 alpha_mix =  0.700 |ddv_scf|^2 =  3.733E-12

      iter #   5 total cpu time :   704.7 secs   av.it.:  11.1
      thresh= 1.932E-07 alpha_mix =  0.700 |ddv_scf|^2 =  1.178E-13

      iter #   6 total cpu time :   707.7 secs   av.it.:  11.0
      thresh= 3.433E-08 alpha_mix =  0.700 |ddv_scf|^2 =  1.860E-15

     End of self-consistent calculation

     Convergence has been achieved 

     Number of q in the star =    6
     List of q in the star:
          1  -0.500000000  -1.000000000   0.000000000
          2   0.000000000   1.000000000   0.500000000
          3   0.000000000  -1.000000000  -0.500000000
          4   0.500000000   1.000000000   0.000000000
          5  -1.000000000  -0.500000000   0.000000000
          6   0.000000000  -0.500000000  -1.000000000

     Diagonalizing the dynamical matrix

     q = (   -0.500000000  -1.000000000   0.000000000 ) 

 **************************************************************************
     freq (    1) =       5.898844 [THz] =     196.764262 [cm-1]
     freq (    2) =       5.898844 [THz] =     196.764262 [cm-1]
     freq (    3) =      10.790976 [THz] =     359.948211 [cm-1]
     freq (    4) =      10.790976 [THz] =     359.948211 [cm-1]
     freq (    5) =      14.340758 [THz] =     478.356202 [cm-1]
     freq (    6) =      14.340758 [THz] =     478.356202 [cm-1]
 **************************************************************************

     init_run     :      0.46s CPU      0.66s WALL (       7 calls)
     electrons    :     27.11s CPU     32.26s WALL (       7 calls)

     Called by init_run:
     wfcinit      :      0.00s CPU      0.06s WALL (       7 calls)
     potinit      :      0.15s CPU      0.19s WALL (       7 calls)
     hinit0       :      0.24s CPU      0.27s WALL (       7 calls)

     Called by electrons:
     c_bands      :     27.11s CPU     32.25s WALL (       7 calls)
     v_of_rho     :      0.03s CPU      0.03s WALL (       8 calls)
     newd         :      0.00s CPU      0.00s WALL (       8 calls)
     PAW_pot      :      0.14s CPU      0.17s WALL (       8 calls)

     Called by c_bands:
     init_us_2    :      2.04s CPU      2.58s WALL (  105618 calls)
     cegterg      :     23.56s CPU     27.97s WALL (    4224 calls)

     Called by *egterg:
     cdiaghg      :      2.89s CPU      3.41s WALL (   56366 calls)
     h_psi        :    340.49s CPU    411.39s WALL ( 1102876 calls)
     s_psi        :      9.44s CPU     11.69s WALL ( 2242783 calls)
     g_psi        :      0.15s CPU      0.17s WALL (   52142 calls)

     Called by h_psi:
     h_psi:calbec :     22.41s CPU     27.68s WALL ( 1102876 calls)
     vloc_psi     :    306.80s CPU    370.05s WALL ( 1102876 calls)
     add_vuspsi   :      5.06s CPU      6.25s WALL ( 1102876 calls)

     General routines
     calbec       :     42.88s CPU     54.10s WALL ( 2451700 calls)
     fft          :      0.38s CPU      0.49s WALL (    5841 calls)
     ffts         :      0.68s CPU      0.84s WALL (   13584 calls)
     fftw         :    332.30s CPU    402.93s WALL ( 9860030 calls)
     davcio       :      1.92s CPU      6.43s WALL (  481989 calls)

     Parallel routines
     fft_scatt_xy :     44.24s CPU     53.40s WALL ( 9879455 calls)
     fft_scatt_yz :    154.90s CPU    190.46s WALL ( 9879455 calls)

     PHONON       :   9m12.29s CPU  11m48.70s WALL

     INITIALIZATION: 
     phq_setup    :      0.09s CPU      0.41s WALL (       8 calls)
     phq_init     :      5.59s CPU      7.82s WALL (       8 calls)

     phq_init     :      5.59s CPU      7.82s WALL (       8 calls)
     set_drhoc    :      0.43s CPU      0.43s WALL (      24 calls)
     init_vloc    :      0.03s CPU      0.03s WALL (       8 calls)
     init_us_1    :      0.19s CPU      0.22s WALL (       8 calls)
     newd         :      0.00s CPU      0.00s WALL (       8 calls)
     dvanqq       :      0.05s CPU      0.06s WALL (       8 calls)
     drho         :      3.72s CPU      4.41s WALL (       8 calls)

     DYNAMICAL MATRIX:
     dynmat0      :      0.72s CPU      1.01s WALL (       8 calls)
     phqscf       :    509.64s CPU    644.86s WALL (       8 calls)
     dynmatrix    :      0.02s CPU      0.24s WALL (       8 calls)

     phqscf       :    509.64s CPU    644.86s WALL (       8 calls)
     solve_linter :    507.93s CPU    640.41s WALL (      32 calls)
     drhodv       :      1.35s CPU      2.01s WALL (      32 calls)

     dynmat0      :      0.72s CPU      1.01s WALL (       8 calls)
     dynmat_us    :      0.45s CPU      0.58s WALL (       8 calls)
     d2ionq       :      0.01s CPU      0.01s WALL (       8 calls)
     dynmatcc     :      0.26s CPU      0.26s WALL (       8 calls)

     dynmat_us    :      0.45s CPU      0.58s WALL (       8 calls)
     addusdynmat  :      0.00s CPU      0.00s WALL (       8 calls)

     phqscf       :    509.64s CPU    644.86s WALL (       8 calls)
     solve_linter :    507.93s CPU    640.41s WALL (      32 calls)

     solve_linter :    507.93s CPU    640.41s WALL (      32 calls)
     dvqpsi_us    :      6.05s CPU      7.22s WALL (   13344 calls)
     ortho        :      4.73s CPU      6.21s WALL (   97453 calls)
     cgsolve      :    399.17s CPU    484.32s WALL (   97453 calls)
     incdrhoscf   :     32.93s CPU     42.19s WALL (   97453 calls)
     addusddens   :      0.22s CPU      0.32s WALL (     261 calls)
     vpsifft      :     26.61s CPU     32.41s WALL (   83437 calls)
     dv_of_drho   :      0.28s CPU      0.31s WALL (     338 calls)
     mix_pot      :      0.61s CPU      9.14s WALL (     234 calls)
     psymdvscf    :      3.64s CPU      3.81s WALL (     229 calls)
     newdq        :      0.27s CPU      0.28s WALL (     234 calls)
     adddvscf     :      0.66s CPU      0.80s WALL (   84109 calls)
     drhodvus     :      0.00s CPU      0.01s WALL (      32 calls)

     dvqpsi_us    :      6.05s CPU      7.22s WALL (   13344 calls)
     dvqpsi_us_on :      1.04s CPU      1.20s WALL (   13344 calls)

     cgsolve      :    399.17s CPU    484.32s WALL (   97453 calls)
     ch_psi       :    372.80s CPU    451.69s WALL ( 1042286 calls)

     ch_psi       :    372.80s CPU    451.69s WALL ( 1042286 calls)
     h_psi        :    340.49s CPU    411.39s WALL ( 1102876 calls)
     last         :     39.49s CPU     48.51s WALL ( 1042286 calls)

     h_psi        :    340.49s CPU    411.39s WALL ( 1102876 calls)
     add_vuspsi   :      5.06s CPU      6.25s WALL ( 1102876 calls)

     incdrhoscf   :     32.93s CPU     42.19s WALL (   97453 calls)
     addusdbec    :      2.65s CPU      3.28s WALL (  110461 calls)

     drhodvus     :      0.00s CPU      0.01s WALL (      32 calls)

      General routines
     calbec       :     42.88s CPU     54.10s WALL ( 2451700 calls)
     fft          :      0.38s CPU      0.49s WALL (    5841 calls)
     ffts         :      0.68s CPU      0.84s WALL (   13584 calls)
     fftw         :    332.30s CPU    402.93s WALL ( 9860030 calls)
     davcio       :      1.92s CPU      6.43s WALL (  481989 calls)
     write_rec    :      0.14s CPU     12.67s WALL (     266 calls)


     PHONON       :   9m12.29s CPU  11m48.71s WALL


   This run was terminated on:  12:43: 0  26May2021            

=------------------------------------------------------------------------------=
   JOB DONE.
=------------------------------------------------------------------------------=
