
     Program PWSCF v.6.7MaX starts on 26May2021 at 12:31: 7 

     This program is part of the open-source Quantum ESPRESSO suite
     for quantum simulation of materials; please cite
         "P. Giannozzi et al., J. Phys.:Condens. Matter 21 395502 (2009);
         "P. Giannozzi et al., J. Phys.:Condens. Matter 29 465901 (2017);
          URL http://www.quantum-espresso.org", 
     in publications or presentations arising from this work. More details at
     http://www.quantum-espresso.org/quote

     Parallel version (MPI), running on    12 processors

     MPI processes distributed on     1 nodes
     R & G space division:  proc/nbgrp/npool/nimage =      12
     Waiting for input...
     Reading input from standard input

     Current dimensions of program PWSCF are:
     Max number of different atomic species (ntypx) = 10
     Max number of k-points (npk) =  40000
     Max angular momentum in pseudopotentials (lmaxx) =  3
     file Si.pbe-n-kjpaw_psl.0.1.UPF: wavefunction(s)  3S renormalized

     Subspace diagonalization in iterative solution of the eigenvalue problem:
     a serial algorithm will be used


     Parallelization info
     --------------------
     sticks:   dense  smooth     PW     G-vecs:    dense   smooth      PW
     Min          36      36     11                  496      496      88
     Max          37      37     12                  499      499      90
     Sum         433     433    139                 5961     5961    1067



     bravais-lattice index     =            2
     lattice parameter (alat)  =      10.2000  a.u.
     unit-cell volume          =     265.3020 (a.u.)^3
     number of atoms/cell      =            2
     number of atomic types    =            1
     number of electrons       =         8.00
     number of Kohn-Sham states=            4
     kinetic-energy cutoff     =      30.0000  Ry
     charge density cutoff     =     120.0000  Ry
     scf convergence threshold =      1.0E-08
     mixing beta               =       0.7000
     number of iterations used =            8  plain     mixing
     Exchange-correlation= SLA  PW   PBX  PBC
                           (   1   4   3   4   0   0   0)

     celldm(1)=  10.200000  celldm(2)=   0.000000  celldm(3)=   0.000000
     celldm(4)=   0.000000  celldm(5)=   0.000000  celldm(6)=   0.000000

     crystal axes: (cart. coord. in units of alat)
               a(1) = (  -0.500000   0.000000   0.500000 )  
               a(2) = (   0.000000   0.500000   0.500000 )  
               a(3) = (  -0.500000   0.500000   0.000000 )  

     reciprocal axes: (cart. coord. in units 2 pi/alat)
               b(1) = ( -1.000000 -1.000000  1.000000 )  
               b(2) = (  1.000000  1.000000  1.000000 )  
               b(3) = ( -1.000000  1.000000 -1.000000 )  


     PseudoPot. # 1 for Si read from file:
     PP/Si.pbe-n-kjpaw_psl.0.1.UPF
     MD5 check sum: b9d333a40e496bef61db012f150758bf
     Pseudo is Projector augmented-wave + core cor, Zval =  4.0
     Generated using "atomic" code by A. Dal Corso  v.5.0.2 svn rev. 9415
     Shape of augmentation charge: PSQ
     Using radial grid of 1141 points,  4 beta functions with: 
                l(1) =   0
                l(2) =   0
                l(3) =   1
                l(4) =   1
     Q(r) pseudized with 0 coefficients 


     atomic species   valence    mass     pseudopotential
        Si             4.00    28.08600     Si( 1.00)

     48 Sym. Ops., with inversion, found (24 have fractional translation)



   Cartesian axes

     site n.     atom                  positions (alat units)
         1           Si  tau(   1) = (   0.0000000   0.0000000   0.0000000  )
         2           Si  tau(   2) = (   0.2500000   0.2500000   0.2500000  )

     number of k points=    56
                       cart. coord. in units 2pi/alat
        k(    1) = (   0.0000000   0.0000000   0.0000000), wk =   0.0015026
        k(    2) = (  -0.0909091   0.0909091  -0.0909091), wk =   0.0120210
        k(    3) = (  -0.1818182   0.1818182  -0.1818182), wk =   0.0120210
        k(    4) = (  -0.2727273   0.2727273  -0.2727273), wk =   0.0120210
        k(    5) = (  -0.3636364   0.3636364  -0.3636364), wk =   0.0120210
        k(    6) = (  -0.4545455   0.4545455  -0.4545455), wk =   0.0120210
        k(    7) = (   0.0000000   0.1818182   0.0000000), wk =   0.0090158
        k(    8) = (  -0.0909091   0.2727273  -0.0909091), wk =   0.0360631
        k(    9) = (  -0.1818182   0.3636364  -0.1818182), wk =   0.0360631
        k(   10) = (  -0.2727273   0.4545455  -0.2727273), wk =   0.0360631
        k(   11) = (  -0.3636364   0.5454545  -0.3636364), wk =   0.0360631
        k(   12) = (   0.5454545  -0.3636364   0.5454545), wk =   0.0360631
        k(   13) = (   0.4545455  -0.2727273   0.4545455), wk =   0.0360631
        k(   14) = (   0.3636364  -0.1818182   0.3636364), wk =   0.0360631
        k(   15) = (   0.2727273  -0.0909091   0.2727273), wk =   0.0360631
        k(   16) = (   0.1818182  -0.0000000   0.1818182), wk =   0.0180316
        k(   17) = (   0.0000000   0.3636364   0.0000000), wk =   0.0090158
        k(   18) = (  -0.0909091   0.4545455  -0.0909091), wk =   0.0360631
        k(   19) = (  -0.1818182   0.5454545  -0.1818182), wk =   0.0360631
        k(   20) = (  -0.2727273   0.6363636  -0.2727273), wk =   0.0360631
        k(   21) = (   0.6363636  -0.2727273   0.6363636), wk =   0.0360631
        k(   22) = (   0.5454545  -0.1818182   0.5454545), wk =   0.0360631
        k(   23) = (   0.4545455  -0.0909091   0.4545455), wk =   0.0360631
        k(   24) = (   0.3636364   0.0000000   0.3636364), wk =   0.0180316
        k(   25) = (   0.0000000   0.5454545   0.0000000), wk =   0.0090158
        k(   26) = (  -0.0909091   0.6363636  -0.0909091), wk =   0.0360631
        k(   27) = (  -0.1818182   0.7272727  -0.1818182), wk =   0.0360631
        k(   28) = (   0.7272727  -0.1818182   0.7272727), wk =   0.0360631
        k(   29) = (   0.6363636  -0.0909091   0.6363636), wk =   0.0360631
        k(   30) = (   0.5454545   0.0000000   0.5454545), wk =   0.0180316
        k(   31) = (   0.0000000   0.7272727   0.0000000), wk =   0.0090158
        k(   32) = (  -0.0909091   0.8181818  -0.0909091), wk =   0.0360631
        k(   33) = (   0.8181818  -0.0909091   0.8181818), wk =   0.0360631
        k(   34) = (   0.7272727   0.0000000   0.7272727), wk =   0.0180316
        k(   35) = (   0.0000000   0.9090909   0.0000000), wk =   0.0090158
        k(   36) = (   0.9090909  -0.0000000   0.9090909), wk =   0.0180316
        k(   37) = (  -0.1818182   0.3636364   0.0000000), wk =   0.0360631
        k(   38) = (  -0.2727273   0.4545455  -0.0909091), wk =   0.0721262
        k(   39) = (  -0.3636364   0.5454545  -0.1818182), wk =   0.0721262
        k(   40) = (   0.5454545  -0.3636364   0.7272727), wk =   0.0721262
        k(   41) = (  -0.1818182   0.5454545   0.0000000), wk =   0.0360631
        k(   42) = (  -0.2727273   0.6363636  -0.0909091), wk =   0.0721262
        k(   43) = (   0.6363636  -0.2727273   0.8181818), wk =   0.0721262
        k(   44) = (   0.5454545  -0.1818182   0.7272727), wk =   0.0721262
        k(   45) = (   0.4545455  -0.0909091   0.6363636), wk =   0.0721262
        k(   46) = (   0.3636364   0.0000000   0.5454545), wk =   0.0360631
        k(   47) = (  -0.1818182   0.7272727   0.0000000), wk =   0.0360631
        k(   48) = (   0.7272727  -0.1818182   0.9090909), wk =   0.0721262
        k(   49) = (   0.6363636  -0.0909091   0.8181818), wk =   0.0721262
        k(   50) = (   0.5454545   0.0000000   0.7272727), wk =   0.0360631
        k(   51) = (   0.8181818  -0.0909091   1.0000000), wk =   0.0360631
        k(   52) = (   0.7272727   0.0000000   0.9090909), wk =   0.0360631
        k(   53) = (   0.6363636  -0.2727273   1.0000000), wk =   0.0360631
        k(   54) = (   0.5454545  -0.1818182   0.9090909), wk =   0.0721262
        k(   55) = (   0.6363636  -0.0909091   1.0000000), wk =   0.0360631
        k(   56) = (   0.5454545   0.0000000   0.9090909), wk =   0.0360631

     Dense  grid:     5961 G-vectors     FFT dimensions: (  32,  32,  32)

     Estimated max dynamical RAM per process >       1.24 MB

     Estimated total dynamical RAM >      14.85 MB

     Check: negative core charge=   -0.000003

     Initial potential from superposition of free atoms

     starting charge    7.99888, renormalised to    8.00000
     Starting wfcs are    8 randomized atomic wfcs
     Checking if some PAW data can be deallocated... 

     total cpu time spent up to now is        0.8 secs

     Self-consistent Calculation

     iteration #  1     ecut=    30.00 Ry     beta= 0.70
     Davidson diagonalization with overlap
     ethr =  1.00E-02,  avg # of iterations =  2.0

     Threshold (ethr) on eigenvalues was too large:
     Diagonalizing with lowered threshold

     Davidson diagonalization with overlap
     ethr =  6.61E-04,  avg # of iterations =  1.0

     total cpu time spent up to now is        1.0 secs

     total energy              =     -93.45026422 Ry
     estimated scf accuracy    <       0.05813146 Ry

     iteration #  2     ecut=    30.00 Ry     beta= 0.70
     Davidson diagonalization with overlap
     ethr =  7.27E-04,  avg # of iterations =  1.0

     total cpu time spent up to now is        1.1 secs

     total energy              =     -93.45266601 Ry
     estimated scf accuracy    <       0.00247960 Ry

     iteration #  3     ecut=    30.00 Ry     beta= 0.70
     Davidson diagonalization with overlap
     ethr =  3.10E-05,  avg # of iterations =  2.0

     total cpu time spent up to now is        1.3 secs

     total energy              =     -93.45302501 Ry
     estimated scf accuracy    <       0.00005792 Ry

     iteration #  4     ecut=    30.00 Ry     beta= 0.70
     Davidson diagonalization with overlap
     ethr =  7.24E-07,  avg # of iterations =  4.0

     total cpu time spent up to now is        1.4 secs

     total energy              =     -93.45306907 Ry
     estimated scf accuracy    <       0.00000006 Ry

     iteration #  5     ecut=    30.00 Ry     beta= 0.70
     Davidson diagonalization with overlap
     ethr =  7.07E-10,  avg # of iterations =  9.4

     total cpu time spent up to now is        1.8 secs

     total energy              =     -93.45307108 Ry
     estimated scf accuracy    <       0.00000007 Ry

     iteration #  6     ecut=    30.00 Ry     beta= 0.70
     Davidson diagonalization with overlap
     ethr =  7.07E-10,  avg # of iterations =  2.0

     total cpu time spent up to now is        1.9 secs

     End of self-consistent calculation

          k = 0.0000 0.0000 0.0000 (   725 PWs)   bands (ev):

    -5.6908   6.4036   6.4036   6.4036

          k =-0.0909 0.0909-0.0909 (   731 PWs)   bands (ev):

    -5.5807   5.4140   6.2323   6.2323

          k =-0.1818 0.1818-0.1818 (   730 PWs)   bands (ev):

    -5.2546   3.7169   5.8852   5.8852

          k =-0.2727 0.2727-0.2727 (   751 PWs)   bands (ev):

    -4.7289   2.0321   5.5566   5.5566

          k =-0.3636 0.3636-0.3636 (   751 PWs)   bands (ev):

    -4.0543   0.5503   5.3221   5.3221

          k =-0.4545 0.4545-0.4545 (   736 PWs)   bands (ev):

    -3.4265  -0.4887   5.2028   5.2028

          k = 0.0000 0.1818 0.0000 (   733 PWs)   bands (ev):

    -5.5439   5.6141   5.8967   5.8967

          k =-0.0909 0.2727-0.0909 (   733 PWs)   bands (ev):

    -5.2890   4.2307   5.4916   5.6895

          k =-0.1818 0.3636-0.1818 (   741 PWs)   bands (ev):

    -4.8273   2.5824   5.1674   5.3120

          k =-0.2727 0.4545-0.2727 (   740 PWs)   bands (ev):

    -4.1927   1.0468   4.9240   4.9788

          k =-0.3636 0.5455-0.3636 (   743 PWs)   bands (ev):

    -3.5059  -0.1720   4.6200   4.9395

          k = 0.5455-0.3636 0.5455 (   740 PWs)   bands (ev):

    -3.2269  -0.5849   4.4372   5.0447

          k = 0.4545-0.2727 0.4545 (   743 PWs)   bands (ev):

    -3.7254   0.1837   4.3975   5.2776

          k = 0.3636-0.1818 0.3636 (   744 PWs)   bands (ev):

    -4.4208   1.5387   4.5172   5.6085

          k = 0.2727-0.0909 0.2727 (   739 PWs)   bands (ev):

    -5.0039   3.1174   4.8144   5.9802

          k = 0.1818-0.0000 0.1818 (   735 PWs)   bands (ev):

    -5.3984   4.6111   5.3854   6.2600

          k = 0.0000 0.3636 0.0000 (   737 PWs)   bands (ev):

    -5.1056   4.1126   5.0480   5.0480

          k =-0.0909 0.4545-0.0909 (   736 PWs)   bands (ev):

    -4.7115   2.9277   4.6298   4.6986

          k =-0.1818 0.5455-0.1818 (   741 PWs)   bands (ev):

    -4.1292   1.5237   4.0921   4.4993

          k =-0.2727 0.6364-0.2727 (   734 PWs)   bands (ev):

    -3.4333   0.2567   3.6078   4.4678

          k = 0.6364-0.2727 0.6364 (   736 PWs)   bands (ev):

    -2.9352  -0.4738   3.2645   4.6028

          k = 0.5455-0.1818 0.5455 (   735 PWs)   bands (ev):

    -3.2297  -0.0502   3.1045   4.8879

          k = 0.4545-0.0909 0.4545 (   742 PWs)   bands (ev):

    -3.9184   1.0950   3.1801   5.2844

          k = 0.3636 0.0000 0.3636 (   732 PWs)   bands (ev):

    -4.5478   2.3117   3.6652   5.7081

          k = 0.0000 0.5455 0.0000 (   729 PWs)   bands (ev):

    -4.3847   2.4740   4.3132   4.3132

          k =-0.0909 0.6364-0.0909 (   736 PWs)   bands (ev):

    -3.8615   1.5014   3.7641   4.0778

          k =-0.1818 0.7273-0.1818 (   731 PWs)   bands (ev):

    -3.1879   0.4489   3.0215   4.0162

          k = 0.7273-0.1818 0.7273 (   730 PWs)   bands (ev):

    -2.5562  -0.3762   2.4368   4.1318

          k = 0.6364-0.0909 0.6364 (   728 PWs)   bands (ev):

    -2.6123  -0.2958   2.1429   4.4127

          k = 0.5455 0.0000 0.5455 (   732 PWs)   bands (ev):

    -3.2635   0.4817   2.3041   4.8245

          k = 0.0000 0.7273 0.0000 (   733 PWs)   bands (ev):

    -3.3970   0.8308   3.7978   3.7978

          k =-0.0909 0.8182-0.0909 (   734 PWs)   bands (ev):

    -2.7629   0.0021   3.2471   3.6911

          k = 0.8182-0.0909 0.8182 (   734 PWs)   bands (ev):

    -2.0720  -0.7287   2.4455   3.7661

          k = 0.7273 0.0000 0.7273 (   730 PWs)   bands (ev):

    -2.0000  -0.7664   1.9466   4.0157

          k = 0.0000 0.9091 0.0000 (   740 PWs)   bands (ev):

    -2.1688  -0.7404   3.5345   3.5345

          k = 0.9091-0.0000 0.9091 (   742 PWs)   bands (ev):

    -1.5086  -1.3973   3.0776   3.5603

          k =-0.1818 0.3636 0.0000 (   736 PWs)   bands (ev):

    -4.9650   3.3710   4.5283   5.5709

          k =-0.2727 0.4545-0.0909 (   738 PWs)   bands (ev):

    -4.4421   2.0258   3.9619   5.2434

          k =-0.3636 0.5455-0.1818 (   738 PWs)   bands (ev):

    -3.7693   0.6528   3.7081   4.8900

          k = 0.5455-0.3636 0.7273 (   734 PWs)   bands (ev):

    -3.1373  -0.3538   3.6114   4.6728

          k =-0.1818 0.5455 0.0000 (   740 PWs)   bands (ev):

    -4.2539   2.0762   3.7990   4.5372

          k =-0.2727 0.6364-0.0909 (   742 PWs)   bands (ev):

    -3.6235   0.9734   3.2167   4.2136

          k = 0.6364-0.2727 0.8182 (   734 PWs)   bands (ev):

    -2.9334  -0.0632   2.8288   4.0532

          k = 0.5455-0.1818 0.7273 (   733 PWs)   bands (ev):

    -2.6573  -0.4245   2.5937   4.1456

          k = 0.4545-0.0909 0.6364 (   734 PWs)   bands (ev):

    -3.1788   0.2860   2.5768   4.4494

          k = 0.3636 0.0000 0.5455 (   740 PWs)   bands (ev):

    -3.8701   1.2899   2.9563   4.8755

          k =-0.1818 0.7273 0.0000 (   741 PWs)   bands (ev):

    -3.2848   0.6913   3.3142   3.7130

          k = 0.7273-0.1818 0.9091 (   738 PWs)   bands (ev):

    -2.5888  -0.1466   2.6533   3.5302

          k = 0.6364-0.0909 0.8182 (   729 PWs)   bands (ev):

    -2.1042  -0.6600   2.1173   3.6500

          k = 0.5455 0.0000 0.7273 (   732 PWs)   bands (ev):

    -2.4998  -0.2522   2.0103   3.9813

          k = 0.8182-0.0909 1.0000 (   734 PWs)   bands (ev):

    -2.0924  -0.7357   3.1181   3.2411

          k = 0.7273 0.0000 0.9091 (   734 PWs)   bands (ev):

    -1.5716  -1.1928   2.4355   3.3158

          k = 0.6364-0.2727 1.0000 (   738 PWs)   bands (ev):

    -2.9655   0.2874   2.5370   3.7338

          k = 0.5455-0.1818 0.9091 (   732 PWs)   bands (ev):

    -2.3141  -0.4289   2.2508   3.4044

          k = 0.6364-0.0909 1.0000 (   731 PWs)   bands (ev):

    -1.8985  -0.7769   2.4830   2.8718

          k = 0.5455 0.0000 0.9091 (   731 PWs)   bands (ev):

    -1.6912  -0.9461   2.1933   2.9101

     highest occupied level (ev):     6.4036

!    total energy              =     -93.45307109 Ry

     total all-electron energy =     -1160.144807 Ry
     estimated scf accuracy    <          3.1E-09 Ry

     The total energy is the sum of the following terms:
     one-electron contribution =       5.88078430 Ry
     hartree contribution      =       1.08158008 Ry
     xc contribution           =     -12.27747948 Ry
     ewald contribution        =     -16.89975860 Ry
     one-center paw contrib.   =     -71.23819738 Ry

     convergence has been achieved in   6 iterations

     Writing output data file ./silicon.save/

     init_run     :      0.14s CPU      0.29s WALL (       1 calls)
     electrons    :      0.89s CPU      1.17s WALL (       1 calls)

     Called by init_run:
     wfcinit      :      0.06s CPU      0.07s WALL (       1 calls)
     potinit      :      0.04s CPU      0.04s WALL (       1 calls)
     hinit0       :      0.04s CPU      0.15s WALL (       1 calls)

     Called by electrons:
     c_bands      :      0.68s CPU      0.83s WALL (       7 calls)
     sum_band     :      0.09s CPU      0.11s WALL (       7 calls)
     v_of_rho     :      0.02s CPU      0.02s WALL (       7 calls)
     newd         :      0.00s CPU      0.00s WALL (       7 calls)
     PAW_pot      :      0.12s CPU      0.15s WALL (       7 calls)
     mix_rho      :      0.00s CPU      0.00s WALL (       7 calls)

     Called by c_bands:
     init_us_2    :      0.02s CPU      0.02s WALL (     840 calls)
     cegterg      :      0.65s CPU      0.78s WALL (     392 calls)

     Called by *egterg:
     cdiaghg      :      0.05s CPU      0.06s WALL (    1538 calls)
     h_psi        :      0.54s CPU      0.65s WALL (    1650 calls)
     s_psi        :      0.01s CPU      0.01s WALL (    1650 calls)
     g_psi        :      0.00s CPU      0.00s WALL (    1202 calls)

     Called by h_psi:
     h_psi:calbec :      0.04s CPU      0.04s WALL (    1650 calls)
     vloc_psi     :      0.48s CPU      0.59s WALL (    1650 calls)
     add_vuspsi   :      0.01s CPU      0.01s WALL (    1650 calls)

     General routines
     calbec       :      0.04s CPU      0.05s WALL (    2042 calls)
     fft          :      0.01s CPU      0.11s WALL (      78 calls)
     ffts         :      0.00s CPU      0.00s WALL (       7 calls)
     fftw         :      0.49s CPU      0.60s WALL (   13638 calls)

     Parallel routines
     fft_scatt_xy :      0.06s CPU      0.08s WALL (   13723 calls)
     fft_scatt_yz :      0.25s CPU      0.31s WALL (   13723 calls)

     PWSCF        :      1.18s CPU      2.58s WALL


   This run was terminated on:  12:31: 9  26May2021            

=------------------------------------------------------------------------------=
   JOB DONE.
=------------------------------------------------------------------------------=
