      26
 i =        0, time =        0.000, E =       -65.0705684708
  C        15.8927700000       15.8927650000       14.1072300000
  C        16.7842400000       14.9999950000       15.0000000000
  C        15.8927700000       14.1072350000       15.8927700000
  H        17.4409100000       14.3652350000       14.3652300000
  H        17.4409100000       15.6347650000       15.6347700000
  C        15.0000000000       14.9999950000       16.7842400000
  C        14.1072300000       15.8927650000       15.8927700000
  H        14.3652300000       14.3652350000       17.4409100000
  H        15.6347700000       15.6347650000       17.4409100000
  C        15.0000000000       16.7842350000       15.0000000000
  H        14.3652300000       17.4409050000       14.3652300000
  H        15.6347700000       17.4409050000       15.6347700000
  C        15.0000000000       14.9999950000       13.2157600000
  H        16.5345800000       16.5345750000       13.4654200000
  C        15.0000000000       13.2157650000       15.0000000000
  H        16.5345800000       13.4654250000       16.5345800000
  C        14.1072300000       14.1072350000       14.1072300000
  H        15.6347700000       12.5590950000       14.3652300000
  H        14.3652300000       12.5590950000       15.6347700000
  H        13.4654200000       13.4654250000       13.4654200000
  C        13.2157600000       14.9999950000       15.0000000000
  H        14.3652300000       15.6347650000       12.5590900000
  H        15.6347700000       14.3652350000       12.5590900000
  H        12.5590900000       15.6347650000       14.3652300000
  H        13.4654200000       16.5345750000       16.5345800000
  H        12.5590900000       14.3652350000       15.6347700000
      26
 i =        1, time =        0.250, E =       -65.0703090772
  C        15.8942464337       15.8917226179       14.1066637350
  C        16.7846095612       14.9995425043       14.9992158076
  C        15.8920735148       14.1064784933       15.8914284576
  H        17.4484160433       14.3597743757       14.3679461680
  H        17.4478845851       15.6319340965       15.6356860496
  C        15.0004409980       14.9992117863       16.7855491161
  C        14.1069626086       15.8920105076       15.8934958969
  H        14.3592766824       14.3609158285       17.4378770526
  H        15.6300898324       15.6385008143       17.4372002166
  C        14.9995111603       16.7865254873       14.9990263908
  H        14.3634434171       17.4473739399       14.3625835001
  H        15.6373484223       17.4397306960       15.6394323007
  C        14.9997502188       15.0004172800       13.2141521667
  H        16.5316111091       16.5337463030       13.4688682433
  C        14.9995875357       13.2177556735       14.9998025624
  H        16.5418979543       13.4678719865       16.5356086839
  C        14.1068573510       14.1055939526       14.1082223941
  H        15.6332546082       12.5608042148       14.3666334752
  H        14.3672966137       12.5592952927       15.6338111330
  H        13.4626760664       13.4690207107       13.4672259264
  C        13.2161323407       14.9998685612       15.0020733528
  H        14.3606954900       15.6348845058       12.5573401455
  H        15.6401885031       14.3654882252       12.5567934832
  H        12.5481338283       15.6338190073       14.3657767173
  H        13.4611204984       16.5377423321       16.5319827518
  H        12.5646200901       14.3692637141       15.6396445466
      26
 i =        2, time =        0.500, E =       -65.0697292305
  C        15.8957175551       15.8907231111       14.1060844482
  C        16.7850222011       14.9990952509       14.9984453394
  C        15.8914197175       14.1057105636       15.8901396166
  H        17.4557100506       14.3545588623       14.3707446716
  H        17.4546697683       15.6290293781       15.6364545704
  C        15.0008675115       14.9984392697       16.7868744532
  C        14.1066726142       15.8912994443       15.8942326829
  H        14.3535753731       14.3568106995       17.4348653107
  H        15.6254191954       15.6420710240       17.4335798947
  C        14.9990314498       16.7888189695       14.9980713719
  H        14.3618349166       17.4536677208       14.3601289595
  H        15.6397484756       17.4385413787       15.6438718502
  C        14.9995055764       15.0008298846       13.2125280421
  H        16.5286884762       16.5329132010       13.4722622357
  C        14.9991825297       13.2196668128       14.9996094180
  H        16.5489793068       13.4703509519       16.5365230050
  C        14.1064661968       14.1039617060       14.1091722416
  H        15.6316770107       12.5624931478       14.3680989960
  H        14.3694186030       12.5595076462       15.6327761555
  H        13.4600250586       13.4725776889       13.4690410642
  C        13.2164530166       14.9997505692       15.0041038756
  H        14.3563764466       15.6348776924       12.5556619026
  H        15.6453605018       14.3658701880       12.5545845334
  H        12.5374673533       15.6327304606       14.3664778969
  H        13.4569830105       16.5407672113       16.5293671405
  H        12.5700369284       14.3732784180       15.6443595559
      26
 i =        3, time =        0.750, E =       -65.0688285789
  C        15.8972583870       15.8897119422       14.1054628936
  C        16.7855079082       14.9986263103       14.9976470049
  C        15.8907788072       14.1048901193       15.8888379736
  H        17.4631273253       14.3493503600       14.3738005413
  H        17.4615861662       15.6258756512       15.6370905883
  C        15.0012958101       14.9976325299       16.7882849103
  C        14.1063419854       15.8905986436       15.8950188153
  H        14.3478608645       14.3527313720       17.4317012622
  H        15.6205380017       15.6456739732       17.4298988688
  C        14.9985355880       16.7912406811       14.9970849481
  H        14.3603587217       17.4600863894       14.3577736367
  H        15.6420714955       17.4372584064       15.6482922869
  C        14.9992536046       15.0012528778       13.2107972256
  H        16.5257052541       16.5320690365       13.4757347154
  C        14.9987633003       13.2215989428       14.9994109671
  H        16.5561544135       13.4730139538       16.5373324447
  C        14.1060352684       14.1022550983       14.1101307247
  H        15.6299678933       12.5642420283       14.3696876693
  H        14.3716977092       12.5597384427       15.6316208244
  H        13.4573124002       13.4762567562       13.4709486250
  C        13.2167362450       14.9996406186       15.0061950991
  H        14.3520705391       15.6347248647       12.5539844857
  H        15.6505191592       14.3664294304       12.5523695424
  H        12.5265892380       15.6313886157       14.3674285851
  H        13.4528145874       16.5437821892       16.5265840654
  H        12.5755960362       14.3774477847       15.6492014181
      26
 i =        4, time =        1.000, E =       -65.0677303606
  C        15.8987400448       15.8887694646       14.1048515657
  C        16.7860340204       14.9981707669       14.9968852013
  C        15.8902072063       14.1040842395       15.8876317618
  H        17.4700175118       14.3446054163       14.3768855156
  H        17.4680351623       15.6227133714       15.6375212414
  C        15.0016849650       14.9968534322       16.7896634616
  C        14.1059955497       15.8899690984       15.8957892087
  H        14.3426306740       14.3490348175       17.4286318639
  H        15.6158729784       15.6490283793       17.4264985445
  C        14.9980642099       16.7935959698       14.9961481979
  H        14.3591686511       17.4660778805       14.3557408758
  H        15.6441068481       17.4359737368       15.6523064850
  C        14.9990152961       15.0016501200       13.2090974258
  H        16.5229530613       16.5313214827       13.4789550725
  C        14.9983637804       13.2233946976       14.9992239856
  H        16.5627983649       13.4756604212       16.5379367320
  C        14.1055995371       14.1006168923       14.1110209940
  H        15.6282830922       12.5658979313       14.3712512717
  H        14.3739352062       12.5599626537       15.6304522820
  H        13.4547435119       13.4797299090       13.4727789659
  C        13.2169572342       14.9995529441       15.0081730655
  H        14.3481505637       15.6344234536       12.5524597657
  H        15.6552088144       14.3671434868       12.5503486475
  H        12.5164431828       15.6298580217       14.3686010144
  H        13.4489776237       16.5465174957       16.5238528852
  H        12.5808129179       14.3813871132       15.6538141354
      26
 i =        5, time =        1.250, E =       -65.0664313663
  C        15.9002527236       15.8878338250       14.1042138411
  C        16.7866394671       14.9976968885       14.9961112209
  C        15.8896723101       14.1032427245       15.8864463182
  H        17.4767764495       14.3400494891       14.3802092268
  H        17.4743943702       15.6193309194       15.6377577412
  C        15.0020540735       14.9960491341       16.7910946708
  C        14.1056098056       15.8893742633       15.8965912305
  H        14.3375803059       14.3455067420       17.4254555578
  H        15.6111579393       15.6523604755       17.4232034510
  C        14.9975878186       16.7960354827       14.9952026536
  H        14.3582164474       17.4719971222       14.3539271055
  H        15.6459666668       17.4345969345       15.6561464804
  C        14.9987759913       15.0020452303       13.2073187932
  H        16.5203045357       16.5306614630       13.4820810914
  C        14.9979584898       13.2251682927       14.9990372069
  H        16.5692968009       13.4784694713       16.5383452994
  C        14.1051315822       14.0989473705       14.1119008127
  H        15.6265338103       12.5675545528       14.3728688610
  H        14.3762582226       12.5601872839       15.6292110586
  H        13.4521397882       13.4831893540       13.4746333174
  C        13.2171291255       14.9994865181       15.0101599253
  H        14.3443857207       15.6339437481       12.5510031358
  H        15.6596969438       14.3680750916       12.5484093486
  H        12.5064367109       15.6280060714       14.3701099616
  H        13.4452480929       16.5491262191       16.5209966482
  H        12.5859875007       14.3853019305       15.6585277502
      26
 i =        6, time =        1.500, E =       -65.0649918151
  C        15.9017790083       15.8869121422       14.1035571967
  C        16.7873256799       14.9972059370       14.9953318240
  C        15.8891836993       14.1023738596       15.8852952328
  H        17.4832988052       14.3357537726       14.3837562765
  H        17.4805722041       15.6157466971       15.6377793297
  C        15.0023937464       14.9952234029       16.7925632661
  C        14.1051860041       15.8888239992       15.8974164610
  H        14.3327871942       14.3422027763       17.4221957046
  H        15.6064659393       15.6556519192       17.4200876087
  C        14.9971113143       16.7985390294       14.9942581497
  H        14.3575411318       17.4777639876       14.3523772134
  H        15.6476141456       17.4331323384       15.6597510235
  C        14.9985383789       15.0024328751       13.2054745463
  H        16.5178341047       16.5301357361       13.4850347111
  C        14.9975510211       13.2269025493       14.9988529905
  H        16.5755512271       13.4814266182       16.5385233972
  C        14.1046351975       14.0972659213       14.1127627353
  H        15.6247537191       12.5691840237       14.3745056964
  H        14.3786313691       12.5604020564       15.6279224778
  H        13.4495091396       13.4865738289       13.4764796063
  C        13.2172483327       14.9994465525       15.0121340682
  H        14.3408313573       15.6332775047       12.5496399905
  H        15.6639085677       14.3692353630       12.5465848420
  H        12.4967151837       15.6258116431       14.3719852250
  H        13.4416814282       16.5515621006       16.5180378242
  H        12.5910390593       14.3891107099       15.6633372042
      26
 i =        7, time =        1.750, E =       -65.0634854393
  C        15.9032983426       15.8860131192       14.1028906135
  C        16.7880908419       14.9967004477       14.9945554079
  C        15.8887508695       14.1014884077       15.8841934885
  H        17.4894748017       14.3317890259       14.3874964439
  H        17.4864715403       15.6119926392       15.6375720486
  C        15.0026947467       14.9943821645       16.7940503404
  C        14.1047270635       15.8883282564       15.8982543401
  H        14.3283302502       14.3391778681       17.4188861524
  H        15.6018780130       15.6588792322       17.4172271197
  C        14.9966405720       16.8010801364       14.9933263488
  H        14.3571743589       17.4832935638       14.3511305593
  H        15.6490159245       17.4315912448       15.6630590537
  C        14.9983055379       15.0028071855       13.2035829945
  H        16.5156165051       16.5297889741       13.4877364911
  C        14.9971457962       13.2285777978       14.9986739727
  H        16.5814589155       13.4845057969       16.5384433542
  C        14.1041156036       14.0955954654       14.1135979774
  H        15.6229811455       12.5707552218       14.3761228475
  H        14.3810130241       12.5605955598       15.6266160545
  H        13.4468646005       13.4898171722       13.4782823875
  C        13.2173122371       14.9994373234       15.0140708487
  H        14.3375430071       15.6324237935       12.5483941329
  H        15.6677689939       14.3706257693       12.5449064999
  H        12.4874320879       15.6232690006       14.3742415239
  H        13.4383343812       16.5537799228       16.5150086938
  H        12.5958809118       14.3927275888       15.6682262924
      26
 i =        8, time =        2.000, E =       -65.0619703281
  C        15.9048089405       15.8851343642       14.1022148988
  C        16.7889407058       14.9961770916       14.9937809080
  C        15.8883769656       14.1005869016       15.8831417019
  H        17.4952794090       14.3281684689       14.3914380946
  H        17.4920746924       15.6080606937       15.6371260462
  C        15.0029524842       14.9935216351       16.7955547610
  C        14.1042310372       15.8878899259       15.8991041987
  H        14.3242256089       14.3364426888       17.4155240312
  H        15.5974162280       15.6620587869       17.4146576712
  C        14.9961756905       16.8036624295       14.9924073595
  H        14.3571346802       17.4885757048       14.3502027262
  H        15.6501624275       17.4299700103       15.6660574183
  C        14.9980775973       15.0031671461       13.2016405262
  H        16.5136929306       16.5296567338       13.4901463752
  C        14.9967422880       13.2301957118       14.9985004869
  H        16.5869981403       13.4877132108       16.5380840897
  C        14.1035719716       14.0939384165       14.1144082667
  H        15.6212328764       12.5722568073       14.3777012107
  H        14.3833900699       12.5607584395       15.6253061153
  H        13.4441874004       13.4928957214       13.4800293705
  C        13.2173200073       14.9994618993       15.0159703600
  H        14.3345290978       15.6313769272       12.5472697457
  H        15.6712595647       14.3722577181       12.5433796313
  H        12.4786152081       15.6203518720       14.3769101428
  H        13.4352168231       16.5557676428       16.5119080605
  H        12.6004909833       14.3961159454       15.6732355611
      26
 i =        9, time =        2.250, E =       -65.0605101376
  C        15.9063001409       15.8842791148       14.1015346468
  C        16.7898752785       14.9956358038       14.9930119830
  C        15.8880671362       14.0996756293       15.8821466487
  H        17.5006570286       14.3249229033       14.3955617303
  H        17.4973337729       15.6039698388       15.6364374537
  C        15.0031612887       14.9926436301       16.7970662916
  C        14.1036991949       15.8875143425       15.8999601006
  H        14.3205106593       14.3340211075       17.4121296832
  H        15.5931274919       15.6651864720       17.4124280248
  C        14.9957196249       16.8062736643       14.9915068122
  H        14.3574368047       17.4935722861       14.3496108132
  H        15.6510402247       17.4282775104       15.6687180657
  C        14.9978560178       15.0035096635       13.1996557021
  H        16.5121123198       16.5297718989       13.4922135711
  C        14.9963424446       13.2317481507       14.9983338635
  H        16.5921176462       13.4910321751       16.5374305513
  C        14.1030066590       14.0923071629       14.1151903231
  H        15.6195360669       12.5736684298       14.3792123436
  H        14.3857348913       12.5608799640       15.6240150822
  H        13.4414756590       13.4957684670       13.4816986218
  C        13.2172708689       14.9995225010       15.0178218433
  H        14.3318131941       15.6301404283       12.5462750756
  H        15.6743443021       14.3741291262       12.5420153352
  H        12.4703397608       15.6170567485       14.3800010559
  H        13.4323545607       16.5575041958       16.5087559224
  H        12.6048225966       14.3992218243       15.6783725670
      26
 i =       10, time =        2.500, E =       -65.0591223917
  C        15.9077994155       15.8834293789       14.1008367826
  C        16.7909180045       14.9950628009       14.9922328162
  C        15.8878186444       14.0987380189       15.8811898473
  H        17.5056913066       14.3219977815       14.3999492252
  H        17.5023368266       15.5996379047       15.6354873865
  C        15.0033211233       14.9917280525       16.7986131297
  C        14.1031193932       15.8871973443       15.9008377176
  H        14.3171263127       14.3318732863       17.4086400357
  H        15.5889479826       15.6683355196       17.4105287940
  C        14.9952638382       16.8089677700       14.9906074985
  H        14.3581003327       17.4983749182       14.3493540554
  H        15.6516602940       17.4264821222       15.6710824989
  C        14.9976366076       15.0038403740       13.1975869396
  H        16.5108801455       16.5301668155       13.4939430601
  C        14.9959381184       13.2332660725       14.9981711707
  H        16.5968984990       13.4945271272       16.5364538568
  C        14.1024074507       14.0906726958       14.1159604974
  H        15.6178746199       12.5750054968       14.3806662643
  H        14.3880792481       12.5609520707       15.6227327430
  H        13.4386595373       13.4984679825       13.4833114603
  C        13.2171626302       14.9996222857       15.0196620729
  H        14.3293479039       15.6286886577       12.5453908425
  H        15.6770677701       14.3762826601       12.5407872638
  H        12.4624672324       15.6132999905       14.3835993390
  H        13.4296987343       16.5590146838       16.5054946003
  H        12.6089418884       14.4020726237       15.6837723948
      26
 i =       11, time =        2.750, E =       -65.0578747126
  C        15.9092725522       15.8826030474       14.1001363944
  C        16.7920506388       14.9944675240       14.9914597556
  C        15.8876400817       14.0977962287       15.8802931331
  H        17.5102541608       14.3194623716       14.4045016230
  H        17.5069624208       15.5951610746       15.6342944684
  C        15.0034248487       14.9907925517       16.8001600191
  C        14.1025028158       15.8869489613       15.9017165499
  H        14.3141572522       14.3300508058       17.4051380468
  H        15.5849869488       15.6714463176       17.4090332245
  C        14.9948188049       16.8116882139       14.9897295633
  H        14.3591207057       17.5028757477       14.3494451547
  H        15.6520057237       17.4246274526       15.6730912030
  C        14.9974242749       15.0041510355       13.1954772373
  H        16.5100549917       16.5308579633       13.4952662396
  C        14.9955379120       13.2347165653       14.9980162538
  H        16.6012200603       13.4981173244       16.5351629024
  C        14.1017861445       14.0890737255       14.1167027744
  H        15.6163016601       12.5762267785       14.3820118924
  H        14.3903575648       12.5609625487       15.6215023123
  H        13.4357853062       13.5009126678       13.4848224520
  C        13.2169963643       14.9997602967       15.0214519416
  H        14.3271902509       15.6270548589       12.5446339723
  H        15.6793576924       14.3786736241       12.5397193983
  H        12.4551890039       15.6091491936       14.3876462898
  H        13.4273121293       16.5602598531       16.5022022882
  H        12.6127439629       14.4045759788       15.6893472614
      26
 i =       12, time =        3.000, E =       -65.0567635842
  C        15.9107540337       15.8817801620       14.0994158872
  C        16.7933047269       14.9938325426       14.9906735080
  C        15.8875302873       14.0968295410       15.8794358097
  H        17.5144402090       14.3172579376       14.4093221222
  H        17.5113123779       15.5904359083       15.6328305242
  C        15.0034717078       14.9898126915       16.8017429164
  C        14.1018332233       15.8867663782       15.9026162902
  H        14.3115404137       14.3285120344       17.4015491331
  H        15.5811644585       15.6745997655       17.4079350413
  C        14.9943744538       16.8145026321       14.9888524254
  H        14.3605295753       17.5071835188       14.3498904449
  H        15.6520837313       17.4226757639       15.6747868322
  C        14.9972139748       15.0044481567       13.1932737398
  H        16.5096440918       16.5318820133       13.4961886999
  C        14.9951320148       13.2361344557       14.9978656284
  H        16.6051725952       13.5018815640       16.5335169366
  C        14.1011261694       14.0874746800       14.1174356127
  H        15.6147956366       12.5773499746       14.3832626774
  H        14.3926103912       12.5609008476       15.6203093108
  H        13.4327698463       13.5031396765       13.4862591757
  C        13.2167665004       14.9999403989       15.0232363961
  H        14.3252892804       15.6252036003       12.5439814530
  H        15.6812587298       14.3813590673       12.5387801595
  H        12.4483457469       15.6044929618       14.3922563261
  H        13.4251399656       16.5612656396       16.4988091722
  H        12.6163093912       14.4067652907       15.6952576499
      26
 i =       13, time =        3.250, E =       -65.0558345894
  C        15.9122008590       15.8809849442       14.0986946554
  C        16.7946477472       14.9931731338       14.9898959992
  C        15.8874952174       14.0958680585       15.8786431527
  H        17.5181184766       14.3154454499       14.4142614267
  H        17.5152560851       15.5856063418       15.6311420559
  C        15.0034577777       14.9888153719       16.8033151637
  C        14.1011287686       15.8866577789       15.9035094054
  H        14.3093553435       14.3272995875       17.3979894285
  H        15.5776022602       15.6777073957       17.4072914147
  C        14.9939443464       16.8173316342       14.9880019189
  H        14.3622889843       17.5111791062       14.3506766861
  H        15.6518944902       17.4206929863       15.6761186070
  C        14.9970117448       15.0047223485       13.1910381535
  H        16.5096794195       16.5332223109       13.4966645588
  C        14.9947319887       13.2374787032       14.9977237932
  H        16.6086329633       13.5057000282       16.5315579349
  C        14.1004446659       14.0859242741       14.1181383643
  H        15.6134150611       12.5783321244       14.3843647674
  H        14.3947590912       12.5607582689       15.6192027357
  H        13.4296881153       13.5050654147       13.4875735846
  C        13.2164780348       15.0001570602       15.0249669398
  H        14.3236972074       15.6231953198       12.5434443385
  H        15.6827099236       14.3842571230       12.5379869616
  H        12.4421444377       15.5994586698       14.3973088111
  H        13.4232441920       16.5620024629       16.4954251381
  H        12.6195302887       14.4085557710       15.7013541776
      26
 i =       14, time =        3.500, E =       -65.0550965232
  C        15.9136019464       15.8802246959       14.0979766881
  C        16.7960700826       14.9924922658       14.9891327737
  C        15.8875364136       14.0949221751       15.8779209971
  H        17.5212608105       14.3140266694       14.4192625820
  H        17.5187660476       15.5807251021       15.6292545049
  C        15.0033822721       14.9878084452       16.8048631102
  C        14.1003949654       15.8866255749       15.9043868647
  H        14.3076133957       14.3264129189       17.3945034924
  H        15.5743333610       15.6807423956       17.4071214346
  C        14.9935327270       16.8201526539       14.9871852859
  H        14.3643771523       17.5148436900       14.3517871988
  H        15.6514495127       17.4187082958       15.6770828927
  C        14.9968190292       15.0049710063       13.1887880457
  H        16.5101663805       16.5348678761       13.4966849893
  C        14.9943409804       13.2387389529       14.9975918576
  H        16.6115754069       13.5095253236       16.5293058310
  C        14.0997454884       14.0844369268       14.1188059694
  H        15.6121828708       12.5791581687       14.3852951725
  H        14.3967747167       12.5605274873       15.6182040750
  H        13.4265572665       13.5066618495       13.4887524750
  C        13.2161325790       15.0004066935       15.0266339964
  H        14.3224165393       15.6210591839       12.5430148288
  H        15.6837042446       14.3873321428       12.5373309342
  H        12.4366305595       15.5940917574       14.4027623198
  H        13.4216324367       16.5624711291       16.4920926852
  H        12.6223861806       14.4099226654       15.7075981675
      26
 i =       15, time =        3.750, E =       -65.0545666206
  C        15.9149062854       15.8795290576       14.0972867896
  C        16.7975165575       14.9918141239       14.9884117759
  C        15.8876515651       14.0940302649       15.8772944665
  H        17.5237650962       14.3130304366       14.4241142318
  H        17.5217261271       15.5759950809       15.6272586063
  C        15.0032491806       14.9868308339       16.8063278114
  C        14.0996603874       15.8866706347       15.9052138030
  H        14.3063614240       14.3258653192       17.3912401329
  H        15.5714758829       15.6835849503       17.4074304148
  C        14.9931557377       16.8228584087       14.9864332466
  H        14.3666963695       17.5180622445       14.3531587983
  H        15.6507838666       17.4168122182       15.6776610795
  C        14.9966426869       15.0051849613       13.1866090437
  H        16.5110752199       16.5367418971       13.4962612193
  C        14.9939736347       13.2398693517       14.9974745059
  H        16.6139054519       13.5131926140       16.5268603872
  C        14.0990537053       14.0830693341       14.1194142020
  H        15.6111522476       12.5797947900       14.3860104005
  H        14.3985734458       12.5602118480       15.6173599455
  H        13.4234924645       13.5078658728       13.4897539381
  C        13.2157436892       15.0006765057       15.0281807940
  H        14.3214763473       15.6188942770       12.5426927635
  H        15.6842219739       14.3904481587       12.5368160255
  H        12.4319888201       15.5886120629       14.4083960545
  H        13.4203496353       16.5626690932       16.4889543024
  H        12.6247871045       14.4108184098       15.7137533228
      26
 i =       16, time =        4.000, E =       -65.0541871594
  C        15.9161977611       15.8788563036       14.0965788088
  C        16.7990768674       14.9910945420       14.9876869885
  C        15.8878476912       14.0931392888       15.8767226643
  H        17.5258029285       14.3123704253       14.4290964000
  H        17.5243369444       15.5711397401       15.6250489835
  C        15.0030512205       14.9858225955       16.8078007506
  C        14.0988796435       15.8867961173       15.9060402015
  H        14.3055036770       14.3256030495       17.3880145652
  H        15.5688446592       15.6864031154       17.4082375941
  C        14.9927906284       16.8256174968       14.9856988738
  H        14.3693736951       17.5210599216       14.3548566193
  H        15.6498736079       17.4149030801       15.6779058692
  C        14.9964712731       15.0053776643       13.1843651379
  H        16.5124501109       16.5389436760       13.4953800919
  C        14.9936069358       13.2409413208       14.9973641095
  H        16.6157839086       13.5169091287       16.5240829812
  C        14.0983240856       14.0817365439       14.1200015912
  H        15.6102645265       12.5802799741       14.3865473408
  H        14.4002605594       12.5597864165       15.6166258416
  H        13.4203005347       13.5087492785       13.4906444719
  C        13.2152867317       15.0009797225       15.0297106913
  H        14.3207995530       15.6165836634       12.5424408813
  H        15.6843114740       14.3937801163       12.5363879893
  H        12.4279071421       15.5826925394       14.4145494784
  H        13.4193002458       16.5626234063       16.4858319172
  H        12.6269025604       14.4113035736       15.7202012465
      26
 i =       17, time =        4.250, E =       -65.0539142646