   26
step    0
C  0.893  0.893  -0.893
C  1.784  -0.000  0.000
C  0.893  -0.893  0.893
H  2.441  -0.635  -0.635
H  2.441  0.635  0.635
C  0.000  -0.000  1.784
C  -0.893  0.893  0.893
H  -0.635  -0.635  2.441
H  0.635  0.635  2.441
C  0.000  1.784  0.000
H  -0.635  2.441  -0.635
H  0.635  2.441  0.635
C  0.000  -0.000  -1.784
H  1.535  1.535  -1.535
C  0.000  -1.784  0.000
H  1.535  -1.535  1.535
C  -0.893  -0.893  -0.893
H  0.635  -2.441  -0.635
H  -0.635  -2.441  0.635
H  -1.535  -1.535  -1.535
C  -1.784  -0.000  0.000
H  -0.635  0.635  -2.441
H  0.635  -0.635  -2.441
H  -2.441  0.635  -0.635
H  -1.535  1.535  1.535
H  -2.441  -0.635  0.635
   26
step    1
C  0.894  0.892  -0.893
C  1.785  -0.000  -0.001
C  0.892  -0.894  0.891
H  2.448  -0.640  -0.632
H  2.448  0.632  0.636
C  0.000  -0.001  1.786
C  -0.893  0.892  0.894
H  -0.641  -0.639  2.438
H  0.630  0.638  2.437
C  -0.001  1.787  -0.001
H  -0.637  2.447  -0.637
H  0.637  2.440  0.640
C  -0.000  0.000  -1.786
H  1.532  1.534  -1.531
C  -0.000  -1.782  -0.000
H  1.542  -1.532  1.536
C  -0.893  -0.894  -0.892
H  0.633  -2.439  -0.633
H  -0.633  -2.441  0.634
H  -1.537  -1.531  -1.533
C  -1.784  -0.000  0.002
H  -0.639  0.635  -2.443
H  0.640  -0.634  -2.443
H  -2.452  0.634  -0.634
H  -1.539  1.538  1.532
H  -2.435  -0.631  0.640
   26
step    2
C  0.896  0.891  -0.894
C  1.785  -0.001  -0.002
C  0.891  -0.894  0.890
H  2.456  -0.645  -0.629
H  2.455  0.629  0.636
C  0.001  -0.002  1.787
C  -0.893  0.891  0.894
H  -0.646  -0.643  2.435
H  0.625  0.642  2.434
C  -0.001  1.789  -0.002
H  -0.638  2.454  -0.640
H  0.640  2.439  0.644
C  -0.001  0.001  -1.787
H  1.529  1.533  -1.528
C  -0.001  -1.780  -0.001
H  1.549  -1.530  1.536
C  -0.894  -0.896  -0.891
H  0.632  -2.437  -0.632
H  -0.630  -2.441  0.633
H  -1.540  -1.527  -1.531
C  -1.784  -0.000  0.004
H  -0.644  0.635  -2.444
H  0.645  -0.634  -2.445
H  -2.463  0.633  -0.633
H  -1.543  1.541  1.530
H  -2.430  -0.627  0.644
   26
step    3
C  0.897  0.890  -0.894
C  1.786  -0.001  -0.002
C  0.891  -0.895  0.889
H  2.463  -0.650  -0.626
H  2.462  0.626  0.637
C  0.001  -0.003  1.788
C  -0.894  0.890  0.895
H  -0.652  -0.648  2.432
H  0.621  0.645  2.430
C  -0.002  1.791  -0.003
H  -0.640  2.460  -0.642
H  0.642  2.437  0.649
C  -0.001  0.001  -1.789
H  1.526  1.532  -1.524
C  -0.001  -1.778  -0.001
H  1.556  -1.527  1.537
C  -0.894  -0.898  -0.890
H  0.630  -2.436  -0.631
H  -0.628  -2.440  0.631
H  -1.543  -1.524  -1.529
C  -1.783  -0.000  0.006
H  -0.648  0.635  -2.446
H  0.651  -0.633  -2.448
H  -2.473  0.631  -0.632
H  -1.547  1.543  1.527
H  -2.424  -0.623  0.649
   26
step    4
C  0.899  0.889  -0.895
C  1.786  -0.002  -0.003
C  0.890  -0.896  0.887
H  2.470  -0.655  -0.623
H  2.468  0.623  0.638
C  0.002  -0.003  1.790
C  -0.894  0.890  0.896
H  -0.657  -0.651  2.429
H  0.616  0.649  2.427
C  -0.002  1.794  -0.004
H  -0.641  2.466  -0.644
H  0.644  2.436  0.653
C  -0.001  0.002  -1.791
H  1.523  1.532  -1.521
C  -0.001  -1.777  -0.001
H  1.563  -1.524  1.538
C  -0.894  -0.899  -0.889
H  0.628  -2.434  -0.629
H  -0.626  -2.440  0.630
H  -1.545  -1.520  -1.527
C  -1.783  -0.001  0.008
H  -0.652  0.635  -2.447
H  0.655  -0.632  -2.450
H  -2.484  0.630  -0.631
H  -1.551  1.546  1.524
H  -2.419  -0.619  0.654
   26
step    5
C  0.900  0.888  -0.896
C  1.787  -0.002  -0.004
C  0.890  -0.897  0.886
H  2.477  -0.660  -0.620
H  2.474  0.619  0.638
C  0.002  -0.004  1.791
C  -0.895  0.889  0.897
H  -0.662  -0.655  2.425
H  0.611  0.652  2.423
C  -0.003  1.796  -0.004
H  -0.642  2.472  -0.646
H  0.646  2.435  0.657
C  -0.001  0.002  -1.793
H  1.520  1.531  -1.518
C  -0.002  -1.775  -0.001
H  1.569  -1.522  1.538
C  -0.895  -0.901  -0.888
H  0.627  -2.432  -0.628
H  -0.624  -2.440  0.629
H  -1.548  -1.517  -1.526
C  -1.783  -0.001  0.010
H  -0.656  0.634  -2.449
H  0.660  -0.631  -2.452
H  -2.494  0.628  -0.630
H  -1.555  1.549  1.521
H  -2.414  -0.615  0.658
   26
step    6
C  0.902  0.887  -0.896
C  1.787  -0.003  -0.005
C  0.889  -0.898  0.885
H  2.483  -0.664  -0.616
H  2.480  0.616  0.638
C  0.002  -0.005  1.793
C  -0.895  0.889  0.898
H  -0.667  -0.658  2.422
H  0.606  0.655  2.420
C  -0.003  1.799  -0.005
H  -0.643  2.478  -0.647
H  0.647  2.433  0.660
C  -0.001  0.003  -1.795
H  1.518  1.531  -1.514
C  -0.002  -1.773  -0.002
H  1.576  -1.519  1.538
C  -0.895  -0.903  -0.888
H  0.625  -2.431  -0.626
H  -0.621  -2.440  0.627
H  -1.550  -1.513  -1.524
C  -1.783  -0.001  0.012
H  -0.659  0.634  -2.450
H  0.664  -0.630  -2.454
H  -2.503  0.626  -0.628
H  -1.559  1.551  1.518
H  -2.409  -0.611  0.663
   26
step    7
C  0.903  0.886  -0.897
C  1.788  -0.003  -0.005
C  0.889  -0.899  0.884
H  2.490  -0.668  -0.612
H  2.486  0.612  0.638
C  0.002  -0.006  1.794
C  -0.895  0.888  0.898
H  -0.672  -0.662  2.419
H  0.601  0.658  2.418
C  -0.004  1.801  -0.006
H  -0.643  2.483  -0.648
H  0.649  2.431  0.664
C  -0.001  0.003  -1.796
H  1.516  1.530  -1.512
C  -0.003  -1.771  -0.002
H  1.581  -1.516  1.538
C  -0.896  -0.904  -0.887
H  0.623  -2.429  -0.625
H  -0.619  -2.440  0.626
H  -1.553  -1.510  -1.522
C  -1.783  -0.001  0.014
H  -0.662  0.633  -2.451
H  0.668  -0.629  -2.455
H  -2.513  0.623  -0.626
H  -1.562  1.553  1.515
H  -2.404  -0.608  0.668
   26
step    8
C  0.905  0.886  -0.897
C  1.789  -0.004  -0.006
C  0.888  -0.900  0.883
H  2.495  -0.671  -0.608
H  2.492  0.608  0.638
C  0.003  -0.007  1.796
C  -0.896  0.888  0.899
H  -0.676  -0.664  2.415
H  0.597  0.661  2.415
C  -0.004  1.804  -0.007
H  -0.643  2.489  -0.649
H  0.650  2.430  0.667
C  -0.002  0.004  -1.798
H  1.514  1.530  -1.509
C  -0.003  -1.770  -0.002
H  1.587  -1.513  1.538
C  -0.896  -0.906  -0.886
H  0.622  -2.427  -0.623
H  -0.617  -2.439  0.624
H  -1.555  -1.507  -1.521
C  -1.783  -0.001  0.016
H  -0.665  0.632  -2.453
H  0.672  -0.627  -2.457
H  -2.521  0.620  -0.623
H  -1.565  1.555  1.512
H  -2.400  -0.604  0.673
   26
step    9
C  0.907  0.885  -0.898
C  1.790  -0.004  -0.006
C  0.888  -0.901  0.882
H  2.501  -0.675  -0.604
H  2.497  0.604  0.637
C  0.003  -0.008  1.797
C  -0.897  0.887  0.900
H  -0.680  -0.667  2.412
H  0.592  0.664  2.413
C  -0.004  1.806  -0.008
H  -0.643  2.494  -0.650
H  0.651  2.428  0.670
C  -0.002  0.004  -1.800
H  1.512  1.530  -1.507
C  -0.004  -1.768  -0.002
H  1.592  -1.509  1.537
C  -0.897  -0.907  -0.885
H  0.620  -2.426  -0.622
H  -0.614  -2.439  0.623
H  -1.558  -1.504  -1.519
C  -1.783  -0.001  0.017
H  -0.667  0.631  -2.454
H  0.675  -0.625  -2.458
H  -2.530  0.617  -0.621
H  -1.568  1.557  1.509
H  -2.395  -0.601  0.677
   26
step   10
C  0.908  0.884  -0.898
C  1.791  -0.005  -0.007
C  0.887  -0.902  0.881
H  2.506  -0.678  -0.599
H  2.502  0.600  0.637
C  0.002  -0.009  1.799
C  -0.897  0.887  0.901
H  -0.684  -0.669  2.408
H  0.588  0.667  2.411
C  -0.005  1.809  -0.009
H  -0.642  2.499  -0.650
H  0.651  2.426  0.672
C  -0.002  0.005  -1.802
H  1.512  1.531  -1.505
C  -0.004  -1.767  -0.003
H  1.596  -1.506  1.537
C  -0.897  -0.909  -0.885
H  0.618  -2.425  -0.620
H  -0.612  -2.439  0.621
H  -1.561  -1.501  -1.518
C  -1.783  -0.000  0.019
H  -0.670  0.630  -2.455
H  0.678  -0.623  -2.459
H  -2.537  0.613  -0.617
H  -1.571  1.558  1.505
H  -2.391  -0.598  0.682
   26
step   11
C  0.910  0.883  -0.899
C  1.792  -0.005  -0.007
C  0.887  -0.903  0.880
H  2.511  -0.680  -0.594
H  2.507  0.595  0.636
C  0.002  -0.010  1.800
C  -0.898  0.887  0.902
H  -0.687  -0.671  2.404
H  0.583  0.670  2.410
C  -0.005  1.812  -0.009
H  -0.640  2.503  -0.650
H  0.652  2.424  0.675
C  -0.001  0.005  -1.805
H  1.511  1.532  -1.503
C  -0.004  -1.765  -0.003
H  1.600  -1.503  1.535
C  -0.898  -0.910  -0.884
H  0.617  -2.423  -0.619
H  -0.610  -2.439  0.620
H  -1.563  -1.498  -1.517
C  -1.783  -0.000  0.020
H  -0.671  0.628  -2.455
H  0.681  -0.620  -2.460
H  -2.544  0.609  -0.614
H  -1.574  1.560  1.502
H  -2.388  -0.596  0.688
   26
step   12
C  0.912  0.882  -0.899
C  1.793  -0.006  -0.008
C  0.887  -0.904  0.880
H  2.515  -0.683  -0.589
H  2.511  0.590  0.635
C  0.002  -0.011  1.802
C  -0.899  0.886  0.902
H  -0.690  -0.673  2.401
H  0.579  0.673  2.409
C  -0.006  1.815  -0.010
H  -0.639  2.508  -0.649
H  0.652  2.422  0.677
C  -0.001  0.005  -1.807
H  1.511  1.533  -1.502
C  -0.005  -1.764  -0.003
H  1.604  -1.499  1.534
C  -0.898  -0.912  -0.884
H  0.615  -2.422  -0.617
H  -0.608  -2.439  0.619
H  -1.566  -1.496  -1.516
C  -1.783  0.000  0.022
H  -0.673  0.627  -2.456
H  0.683  -0.617  -2.461
H  -2.551  0.605  -0.610
H  -1.576  1.561  1.498
H  -2.384  -0.593  0.693
   26
step   13
C  0.913  0.881  -0.900
C  1.795  -0.007  -0.008
C  0.886  -0.905  0.879
H  2.519  -0.684  -0.583
H  2.515  0.585  0.634
C  0.002  -0.012  1.803
C  -0.900  0.886  0.903
H  -0.693  -0.674  2.397
H  0.575  0.676  2.408
C  -0.006  1.817  -0.011
H  -0.637  2.512  -0.649
H  0.651  2.420  0.678
C  -0.001  0.006  -1.809
H  1.511  1.534  -1.501
C  -0.005  -1.762  -0.003
H  1.607  -1.495  1.532
C  -0.899  -0.913  -0.883
H  0.614  -2.421  -0.616
H  -0.606  -2.439  0.617
H  -1.569  -1.494  -1.515
C  -1.784  0.000  0.023
H  -0.674  0.625  -2.457
H  0.685  -0.614  -2.462
H  -2.557  0.600  -0.605
H  -1.578  1.561  1.495
H  -2.381  -0.592  0.698
   26
step   14
C  0.915  0.881  -0.900
C  1.796  -0.008  -0.008
C  0.886  -0.906  0.879
H  2.522  -0.686  -0.578
H  2.518  0.580  0.633
C  0.001  -0.013  1.805
C  -0.901  0.886  0.904
H  -0.696  -0.675  2.393
H  0.571  0.679  2.408
C  -0.006  1.820  -0.012
H  -0.634  2.515  -0.648
H  0.651  2.418  0.679
C  -0.001  0.006  -1.811
H  1.512  1.536  -1.500
C  -0.006  -1.761  -0.003
H  1.609  -1.492  1.531
C  -0.899  -0.915  -0.883
H  0.613  -2.421  -0.615
H  -0.604  -2.440  0.616
H  -1.572  -1.492  -1.514
C  -1.784  0.001  0.024
H  -0.674  0.623  -2.458
H  0.687  -0.611  -2.462
H  -2.562  0.595  -0.600
H  -1.580  1.562  1.491
H  -2.379  -0.590  0.704
   26
step   15
C  0.917  0.880  -0.901
C  1.798  -0.009  -0.009
C  0.886  -0.907  0.878
H  2.525  -0.687  -0.572
H  2.521  0.575  0.632
C  0.000  -0.014  1.806
C  -0.902  0.886  0.904
H  -0.698  -0.675  2.390
H  0.568  0.682  2.409
C  -0.006  1.823  -0.012
H  -0.632  2.519  -0.646
H  0.650  2.416  0.680
C  -0.000  0.006  -1.813
H  1.514  1.537  -1.500
C  -0.006  -1.760  -0.004
H  1.611  -1.488  1.529
C  -0.900  -0.916  -0.883
H  0.612  -2.420  -0.614
H  -0.603  -2.440  0.615
H  -1.574  -1.491  -1.514
C  -1.784  0.001  0.025
H  -0.674  0.621  -2.458
H  0.688  -0.608  -2.462
H  -2.567  0.590  -0.595
H  -1.582  1.562  1.487
H  -2.377  -0.589  0.710
   26
step   16
C  0.918  0.879  -0.901
C  1.799  -0.009  -0.009
C  0.886  -0.908  0.878
H  2.527  -0.688  -0.566
H  2.523  0.570  0.630
C  -0.000  -0.015  1.808
C  -0.903  0.887  0.905
H  -0.699  -0.676  2.386
H  0.564  0.685  2.410
C  -0.007  1.826  -0.013
H  -0.629  2.522  -0.645
H  0.649  2.414  0.681
C  -0.000  0.007  -1.816
H  1.516  1.539  -1.501
C  -0.007  -1.759  -0.004
H  1.612  -1.485  1.526
C  -0.900  -0.917  -0.882
H  0.611  -2.419  -0.614
H  -0.602  -2.440  0.614
H  -1.577  -1.490  -1.513
C  -1.785  0.002  0.026
H  -0.674  0.618  -2.458
H  0.689  -0.605  -2.463
H  -2.571  0.584  -0.590
H  -1.583  1.562  1.484
H  -2.375  -0.588  0.715
   26
step   17
C  0.920  0.879  -0.901
C  1.801  -0.010  -0.009
C  0.886  -0.909  0.878
H  2.528  -0.689  -0.560
H  2.525  0.565  0.629
C  -0.001  -0.016  1.809
C  -0.904  0.887  0.905
H  -0.701  -0.676  2.383
H  0.561  0.687  2.411
C  -0.007  1.829  -0.014
H  -0.625  2.525  -0.643
H  0.648  2.412  0.681
C  0.000  0.007  -1.818
H  1.518  1.542  -1.501
C  -0.007  -1.758  -0.004
H  1.613  -1.481  1.524
C  -0.901  -0.919  -0.882
H  0.610  -2.419  -0.613
H  -0.601  -2.441  0.613
H  -1.580  -1.489  -1.513
C  -1.785  0.002  0.027
H  -0.674  0.616  -2.459
H  0.689  -0.601  -2.463
H  -2.574  0.578  -0.584
H  -1.584  1.562  1.480
H  -2.373  -0.588  0.721
   26
step   18
C  0.922  0.878  -0.902
C  1.803  -0.011  -0.009
C  0.886  -0.910  0.878
H  2.530  -0.689  -0.554
H  2.527  0.560  0.627
C  -0.002  -0.017  1.811
C  -0.905  0.887  0.906
H  -0.702  -0.675  2.379
H  0.558  0.690  2.413
C  -0.007  1.831  -0.014
H  -0.621  2.527  -0.641
H  0.647  2.410  0.681
C  0.001  0.007  -1.820
H  1.521  1.545  -1.503
C  -0.008  -1.757  -0.004
H  1.613  -1.477  1.521
C  -0.901  -0.920  -0.882
H  0.609  -2.419  -0.613
H  -0.600  -2.441  0.612
H  -1.583  -1.489  -1.513
C  -1.786  0.003  0.028
H  -0.673  0.614  -2.459
H  0.690  -0.598  -2.463
H  -2.577  0.572  -0.578
H  -1.585  1.562  1.477
H  -2.372  -0.588  0.727
   26
step   19
C  0.923  0.877  -0.902
C  1.804  -0.012  -0.009
C  0.886  -0.910  0.877
H  2.530  -0.689  -0.548
H  2.528  0.554  0.626
C  -0.004  -0.018  1.812
C  -0.906  0.888  0.906
H  -0.703  -0.675  2.376
H  0.555  0.692  2.416
C  -0.007  1.834  -0.015
H  -0.617  2.530  -0.639
H  0.645  2.409  0.680
C  0.002  0.007  -1.823
H  1.525  1.547  -1.504
C  -0.009  -1.756  -0.004
H  1.613  -1.474  1.518
C  -0.902  -0.921  -0.882
H  0.609  -2.419  -0.613
H  -0.599  -2.442  0.612
H  -1.586  -1.488  -1.513
C  -1.787  0.003  0.029
H  -0.672  0.611  -2.460
H  0.689  -0.594  -2.463
H  -2.579  0.565  -0.572
H  -1.586  1.561  1.473
H  -2.371  -0.589  0.733
   26
step   20
C  0.925  0.877  -0.903
C  1.806  -0.013  -0.009
C  0.886  -0.911  0.878
H  2.531  -0.689  -0.542
H  2.529  0.549  0.624
C  -0.005  -0.019  1.814
C  -0.907  0.888  0.907
H  -0.703  -0.674  2.373
H  0.553  0.695  2.419
C  -0.007  1.837  -0.016
H  -0.613  2.532  -0.636
H  0.644  2.407  0.680
C  0.002  0.007  -1.825
H  1.529  1.550  -1.506
C  -0.009  -1.755  -0.004
H  1.612  -1.471  1.515
C  -0.902  -0.922  -0.882
H  0.609  -2.419  -0.613
H  -0.598  -2.443  0.611
H  -1.589  -1.489  -1.514
C  -1.787  0.004  0.029
H  -0.670  0.609  -2.460
H  0.689  -0.590  -2.463
H  -2.580  0.558  -0.566
H  -1.587  1.561  1.470
H  -2.370  -0.589  0.739
   26
step   21
C  0.927  0.876  -0.903
C  1.808  -0.014  -0.009
C  0.886  -0.912  0.878
H  2.531  -0.688  -0.537
H  2.530  0.545  0.623
C  -0.006  -0.020  1.815
C  -0.908  0.889  0.907
H  -0.703  -0.673  2.371
H  0.550  0.697  2.422
C  -0.007  1.840  -0.016
H  -0.609  2.534  -0.634
H  0.642  2.405  0.679
C  0.003  0.007  -1.827
H  1.533  1.553  -1.508
C  -0.010  -1.755  -0.004
H  1.611  -1.468  1.512
C  -0.903  -0.923  -0.882
H  0.609  -2.420  -0.613
H  -0.598  -2.444  0.611
H  -1.592  -1.489  -1.514
C  -1.788  0.004  0.030
H  -0.669  0.607  -2.461
H  0.688  -0.587  -2.463
H  -2.581  0.551  -0.559
H  -1.587  1.560  1.467
H  -2.370  -0.591  0.745
   26
step   22
C  0.928  0.876  -0.903
C  1.810  -0.015  -0.008
C  0.886  -0.913  0.878
H  2.530  -0.688  -0.531
H  2.530  0.540  0.621
C  -0.008  -0.021  1.816
C  -0.910  0.890  0.907
H  -0.704  -0.672  2.369
H  0.548  0.699  2.426
C  -0.007  1.842  -0.017
H  -0.604  2.536  -0.631
H  0.640  2.404  0.678
C  0.004  0.007  -1.830
H  1.537  1.556  -1.510
C  -0.010  -1.754  -0.004
H  1.610  -1.465  1.509
C  -0.904  -0.923  -0.882
H  0.609  -2.420  -0.613
H  -0.598  -2.445  0.611
H  -1.595  -1.490  -1.514
C  -1.789  0.005  0.030
H  -0.667  0.604  -2.461
H  0.687  -0.583  -2.463
H  -2.582  0.544  -0.552
H  -1.588  1.559  1.464
H  -2.370  -0.592  0.751
   26
step   23
C  0.930  0.875  -0.904
C  1.812  -0.017  -0.008
C  0.886  -0.914  0.878
H  2.530  -0.687  -0.526
H  2.531  0.536  0.620
C  -0.009  -0.022  1.817
C  -0.911  0.890  0.907
H  -0.703  -0.671  2.367
H  0.546  0.700  2.430
C  -0.007  1.845  -0.017
H  -0.600  2.538  -0.629
H  0.638  2.403  0.677
C  0.005  0.007  -1.832
H  1.542  1.559  -1.512
C  -0.011  -1.754  -0.004
H  1.608  -1.463  1.506
C  -0.904  -0.924  -0.882
H  0.609  -2.421  -0.614
H  -0.598  -2.446  0.611
H  -1.597  -1.492  -1.515
C  -1.790  0.005  0.031
H  -0.665  0.602  -2.462
H  0.686  -0.580  -2.463
H  -2.582  0.538  -0.546
H  -1.588  1.558  1.461
H  -2.370  -0.594  0.756
   26
step   24
C  0.931  0.875  -0.904
C  1.814  -0.018  -0.008
C  0.886  -0.914  0.879
H  2.529  -0.687  -0.521
H  2.530  0.532  0.619
C  -0.010  -0.023  1.819
C  -0.912  0.891  0.907
H  -0.703  -0.670  2.365
H  0.544  0.701  2.435
C  -0.007  1.847  -0.018
H  -0.595  2.540  -0.626
H  0.636  2.402  0.675
C  0.005  0.007  -1.834
H  1.546  1.562  -1.515
C  -0.011  -1.753  -0.004
H  1.606  -1.461  1.503
C  -0.905  -0.925  -0.882
H  0.610  -2.421  -0.615
H  -0.598  -2.447  0.611
H  -1.600  -1.493  -1.516
C  -1.791  0.006  0.031
H  -0.663  0.600  -2.463
H  0.685  -0.577  -2.464
H  -2.582  0.531  -0.539
H  -1.588  1.557  1.459
H  -2.370  -0.596  0.762
   26
step   25
C  0.933  0.875  -0.904
C  1.816  -0.019  -0.007
C  0.886  -0.915  0.879
H  2.527  -0.686  -0.516
H  2.530  0.528  0.618
C  -0.012  -0.024  1.820
C  -0.914  0.892  0.907
H  -0.703  -0.668  2.364
H  0.542  0.702  2.439
C  -0.007  1.850  -0.018
H  -0.591  2.542  -0.624
H  0.635  2.402  0.674
C  0.006  0.007  -1.836
H  1.551  1.565  -1.518
C  -0.011  -1.753  -0.004
H  1.604  -1.459  1.500
C  -0.905  -0.925  -0.882
H  0.610  -2.422  -0.615
H  -0.599  -2.448  0.611
H  -1.602  -1.495  -1.516
C  -1.792  0.006  0.032
H  -0.661  0.598  -2.464
H  0.684  -0.574  -2.464
H  -2.582  0.524  -0.533
H  -1.589  1.556  1.457
H  -2.370  -0.598  0.767
   26
step   26
C  0.935  0.875  -0.905
C  1.818  -0.020  -0.007
C  0.887  -0.915  0.880
H  2.526  -0.686  -0.512
H  2.530  0.525  0.617
C  -0.014  -0.025  1.821
C  -0.915  0.893  0.907
H  -0.702  -0.667  2.363
H  0.540  0.703  2.444
C  -0.007  1.852  -0.019
H  -0.587  2.544  -0.622
H  0.633  2.402  0.672
C  0.007  0.007  -1.838
H  1.556  1.567  -1.520
C  -0.012  -1.753  -0.004
H  1.601  -1.458  1.497
C  -0.906  -0.926  -0.883
H  0.611  -2.423  -0.616
H  -0.599  -2.449  0.612
H  -1.605  -1.497  -1.517
C  -1.793  0.007  0.032
H  -0.659  0.597  -2.465
H  0.682  -0.571  -2.465
H  -2.581  0.518  -0.526
H  -1.589  1.555  1.456
H  -2.370  -0.601  0.772
   26
step   27
C  0.936  0.874  -0.905
C  1.820  -0.021  -0.007
C  0.887  -0.916  0.880
H  2.524  -0.685  -0.509
H  2.529  0.522  0.617
C  -0.015  -0.025  1.822
C  -0.916  0.894  0.907
H  -0.702  -0.666  2.363
H  0.539  0.703  2.449
C  -0.007  1.854  -0.019
H  -0.583  2.546  -0.620
H  0.631  2.402  0.671
C  0.008  0.007  -1.840
H  1.561  1.569  -1.523
C  -0.012  -1.753  -0.004
H  1.599  -1.458  1.495
C  -0.907  -0.926  -0.883
H  0.612  -2.424  -0.617
H  -0.600  -2.451  0.612
H  -1.607  -1.500  -1.517
C  -1.794  0.007  0.033
H  -0.657  0.595  -2.466
H  0.681  -0.569  -2.466
H  -2.580  0.512  -0.520
H  -1.589  1.554  1.454
H  -2.370  -0.603  0.776
   26
step   28
C  0.938  0.875  -0.906
C  1.822  -0.022  -0.006
C  0.888  -0.916  0.881
H  2.523  -0.685  -0.505
H  2.528  0.520  0.617
C  -0.017  -0.026  1.823
C  -0.918  0.896  0.907
H  -0.701  -0.665  2.363
H  0.537  0.702  2.455
C  -0.006  1.856  -0.019
H  -0.579  2.548  -0.618
H  0.630  2.403  0.669
C  0.009  0.007  -1.842
H  1.566  1.571  -1.526
C  -0.012  -1.753  -0.004
H  1.596  -1.457  1.492
C  -0.908  -0.927  -0.883
H  0.613  -2.425  -0.618
H  -0.601  -2.452  0.613
H  -1.609  -1.503  -1.518
C  -1.795  0.007  0.033
H  -0.655  0.594  -2.468
H  0.679  -0.567  -2.468
H  -2.580  0.506  -0.514
H  -1.590  1.553  1.454
H  -2.370  -0.606  0.781
   26
step   29
C  0.939  0.875  -0.907
C  1.825  -0.023  -0.006
C  0.888  -0.916  0.882
H  2.521  -0.685  -0.503
H  2.528  0.518  0.617
C  -0.018  -0.026  1.824
C  -0.919  0.897  0.907
H  -0.701  -0.664  2.364
H  0.536  0.701  2.461
C  -0.006  1.858  -0.020
H  -0.575  2.550  -0.617
H  0.629  2.404  0.668
C  0.010  0.006  -1.844
H  1.571  1.573  -1.528
C  -0.013  -1.753  -0.004
H  1.593  -1.458  1.490
C  -0.908  -0.927  -0.884
H  0.614  -2.426  -0.619
H  -0.602  -2.453  0.614
H  -1.611  -1.506  -1.518
C  -1.796  0.007  0.034
H  -0.653  0.593  -2.469
H  0.678  -0.566  -2.469
H  -2.580  0.500  -0.509
H  -1.590  1.553  1.453
H  -2.370  -0.609  0.785
   26
step   30
C  0.940  0.875  -0.907
C  1.826  -0.024  -0.005
C  0.889  -0.916  0.882
H  2.520  -0.685  -0.501
H  2.527  0.517  0.617
C  -0.020  -0.026  1.825
C  -0.920  0.898  0.906
H  -0.701  -0.663  2.365
H  0.534  0.700  2.466
C  -0.006  1.860  -0.020
H  -0.572  2.552  -0.616
H  0.628  2.405  0.667
C  0.011  0.006  -1.846
H  1.575  1.574  -1.531
C  -0.013  -1.754  -0.004
H  1.591  -1.459  1.489
C  -0.909  -0.927  -0.884
H  0.615  -2.427  -0.621
H  -0.602  -2.455  0.615
H  -1.612  -1.509  -1.518
C  -1.797  0.007  0.034
H  -0.651  0.592  -2.471
H  0.677  -0.565  -2.471
H  -2.580  0.495  -0.504
H  -1.591  1.552  1.454
H  -2.370  -0.612  0.789
   26
step   31
C  0.942  0.875  -0.908
C  1.828  -0.025  -0.005
C  0.889  -0.916  0.883
H  2.518  -0.685  -0.500
H  2.526  0.517  0.618
C  -0.022  -0.027  1.826
C  -0.921  0.899  0.906
H  -0.700  -0.663  2.367
H  0.533  0.698  2.472
C  -0.006  1.862  -0.020
H  -0.569  2.555  -0.615
H  0.627  2.407  0.665
C  0.011  0.006  -1.847
H  1.579  1.575  -1.534
C  -0.013  -1.754  -0.004
H  1.588  -1.460  1.487
C  -0.910  -0.928  -0.885
H  0.616  -2.428  -0.622
H  -0.603  -2.456  0.616
H  -1.613  -1.512  -1.519
C  -1.798  0.007  0.035
H  -0.649  0.591  -2.473
H  0.675  -0.564  -2.474
H  -2.580  0.490  -0.499
H  -1.591  1.552  1.454
H  -2.370  -0.615  0.792
   26
step   32
C  0.943  0.876  -0.909
C  1.830  -0.026  -0.004
C  0.890  -0.916  0.884
H  2.517  -0.686  -0.500
H  2.526  0.517  0.619
C  -0.023  -0.027  1.826
C  -0.923  0.901  0.905
H  -0.700  -0.662  2.370
H  0.531  0.696  2.478
C  -0.006  1.864  -0.021
H  -0.566  2.558  -0.615
H  0.626  2.409  0.664
C  0.012  0.005  -1.849
H  1.584  1.576  -1.536
C  -0.013  -1.755  -0.003
H  1.586  -1.463  1.486
C  -0.911  -0.928  -0.885
H  0.617  -2.429  -0.623
H  -0.604  -2.457  0.617
H  -1.614  -1.516  -1.519
C  -1.799  0.007  0.036
H  -0.647  0.591  -2.476
H  0.674  -0.564  -2.477
H  -2.580  0.486  -0.495
H  -1.592  1.551  1.455
H  -2.369  -0.619  0.795
   26
step   33
C  0.945  0.876  -0.910
C  1.832  -0.027  -0.004
C  0.890  -0.915  0.885
H  2.516  -0.687  -0.500
H  2.525  0.517  0.620
C  -0.025  -0.027  1.827
C  -0.924  0.902  0.905
H  -0.700  -0.662  2.373
H  0.530  0.693  2.484
C  -0.005  1.865  -0.021
H  -0.564  2.561  -0.615
H  0.626  2.412  0.663
C  0.013  0.005  -1.851
H  1.588  1.576  -1.538
C  -0.013  -1.756  -0.003
H  1.584  -1.466  1.486
C  -0.912  -0.928  -0.886
H  0.619  -2.430  -0.624
H  -0.606  -2.458  0.618
H  -1.615  -1.520  -1.518
C  -1.800  0.007  0.036
H  -0.646  0.591  -2.478
H  0.673  -0.565  -2.480
H  -2.581  0.482  -0.491
H  -1.593  1.551  1.457
H  -2.369  -0.622  0.798
   26
step   34
C  0.946  0.877  -0.911
C  1.834  -0.028  -0.004
C  0.891  -0.915  0.886
H  2.515  -0.689  -0.501
H  2.525  0.519  0.622
C  -0.026  -0.027  1.828
C  -0.925  0.904  0.904
H  -0.699  -0.662  2.377
H  0.528  0.690  2.491
C  -0.005  1.867  -0.021
H  -0.562  2.565  -0.615
H  0.625  2.415  0.662
C  0.014  0.004  -1.852
H  1.592  1.576  -1.541
C  -0.013  -1.756  -0.003
H  1.582  -1.469  1.486
C  -0.913  -0.928  -0.886
H  0.620  -2.431  -0.625
H  -0.607  -2.460  0.620
H  -1.615  -1.524  -1.518
C  -1.801  0.006  0.037
H  -0.644  0.592  -2.481
H  0.672  -0.566  -2.484
H  -2.583  0.479  -0.488
H  -1.594  1.551  1.459
H  -2.368  -0.625  0.800
   26
step   35
C  0.947  0.878  -0.912
C  1.836  -0.029  -0.003
C  0.892  -0.914  0.887
H  2.514  -0.691  -0.503
H  2.524  0.520  0.624
C  -0.028  -0.026  1.829
C  -0.927  0.905  0.903
H  -0.699  -0.662  2.381
H  0.527  0.686  2.497
C  -0.005  1.868  -0.021
H  -0.561  2.568  -0.616
H  0.626  2.418  0.661
C  0.015  0.004  -1.854
H  1.595  1.575  -1.543
C  -0.013  -1.757  -0.003
H  1.580  -1.473  1.486
C  -0.914  -0.928  -0.887
H  0.621  -2.432  -0.627
H  -0.608  -2.461  0.621
H  -1.615  -1.528  -1.518
C  -1.802  0.005  0.038
H  -0.643  0.592  -2.484
H  0.671  -0.567  -2.488
H  -2.585  0.477  -0.486
H  -1.595  1.552  1.462
H  -2.367  -0.629  0.801
   26
step   36
C  0.948  0.879  -0.913
C  1.838  -0.030  -0.003
C  0.893  -0.913  0.888
H  2.513  -0.693  -0.506
H  2.524  0.523  0.626
C  -0.029  -0.026  1.829
C  -0.928  0.907  0.903
H  -0.699  -0.663  2.386
H  0.526  0.682  2.503
C  -0.005  1.869  -0.021
H  -0.559  2.572  -0.617
H  0.626  2.423  0.660
C  0.015  0.003  -1.855
H  1.599  1.574  -1.545
C  -0.013  -1.759  -0.002
H  1.578  -1.478  1.487
C  -0.915  -0.928  -0.888
H  0.623  -2.433  -0.628
H  -0.609  -2.462  0.622
H  -1.615  -1.532  -1.517
C  -1.804  0.004  0.040
H  -0.642  0.593  -2.488
H  0.670  -0.569  -2.493
H  -2.588  0.475  -0.484
H  -1.596  1.552  1.465
H  -2.366  -0.633  0.803
   26
step   37
C  0.950  0.880  -0.914
C  1.840  -0.031  -0.002
C  0.894  -0.913  0.889
H  2.513  -0.696  -0.509
H  2.523  0.526  0.629
C  -0.031  -0.026  1.830
C  -0.929  0.909  0.902
H  -0.700  -0.663  2.391
H  0.524  0.677  2.509
C  -0.004  1.870  -0.022
H  -0.559  2.577  -0.619
H  0.626  2.427  0.660
C  0.016  0.003  -1.857
H  1.602  1.572  -1.547
C  -0.013  -1.760  -0.002
H  1.577  -1.484  1.488
C  -0.916  -0.928  -0.888
H  0.624  -2.434  -0.629
H  -0.610  -2.463  0.624
H  -1.615  -1.536  -1.516
C  -1.805  0.003  0.041
H  -0.641  0.594  -2.491
H  0.669  -0.571  -2.497
H  -2.592  0.473  -0.482
H  -1.598  1.552  1.469
H  -2.364  -0.636  0.804
   26
step   38
C  0.951  0.881  -0.916
C  1.842  -0.032  -0.002
C  0.895  -0.912  0.890
H  2.513  -0.699  -0.513
H  2.523  0.530  0.632
C  -0.032  -0.025  1.830
C  -0.931  0.910  0.901
H  -0.700  -0.664  2.397
H  0.523  0.671  2.516
C  -0.004  1.871  -0.022
H  -0.558  2.581  -0.621
H  0.627  2.432  0.659
C  0.017  0.002  -1.858
H  1.605  1.570  -1.548
C  -0.013  -1.761  -0.002
H  1.575  -1.490  1.489
C  -0.917  -0.928  -0.889
H  0.625  -2.434  -0.630
H  -0.610  -2.464  0.625
H  -1.614  -1.541  -1.515
C  -1.806  0.002  0.042
H  -0.640  0.596  -2.495
H  0.668  -0.574  -2.503
H  -2.596  0.472  -0.481
H  -1.599  1.553  1.473
H  -2.363  -0.640  0.804
   26
step   39
C  0.952  0.882  -0.917
C  1.843  -0.032  -0.001
C  0.895  -0.911  0.891
H  2.513  -0.702  -0.518
H  2.523  0.533  0.635
C  -0.034  -0.024  1.831
C  -0.932  0.912  0.900
H  -0.700  -0.665  2.403
H  0.521  0.666  2.522
C  -0.004  1.872  -0.022
H  -0.558  2.585  -0.623
H  0.628  2.437  0.659
C  0.017  0.001  -1.859
H  1.607  1.567  -1.550
C  -0.012  -1.763  -0.001
H  1.574  -1.497  1.491
C  -0.918  -0.928  -0.890
H  0.626  -2.434  -0.631
H  -0.611  -2.465  0.626
H  -1.613  -1.545  -1.514
C  -1.807  0.001  0.044
H  -0.639  0.597  -2.499
H  0.667  -0.578  -2.508
H  -2.600  0.472  -0.481
H  -1.601  1.554  1.477
H  -2.361  -0.643  0.804
   26
step   40
C  0.953  0.883  -0.919
C  1.845  -0.033  -0.001
C  0.896  -0.910  0.892
H  2.513  -0.705  -0.523
H  2.522  0.538  0.638
C  -0.035  -0.024  1.831
C  -0.933  0.914  0.899
H  -0.700  -0.666  2.409
H  0.520  0.660  2.527
C  -0.004  1.873  -0.022
H  -0.558  2.589  -0.625
H  0.629  2.442  0.658
C  0.018  0.001  -1.860
H  1.609  1.565  -1.551
C  -0.012  -1.764  -0.001
H  1.573  -1.503  1.493
C  -0.919  -0.928  -0.890
H  0.627  -2.435  -0.632
H  -0.612  -2.465  0.628
H  -1.611  -1.550  -1.512
C  -1.808  -0.000  0.045
H  -0.638  0.599  -2.502
H  0.667  -0.581  -2.514
H  -2.605  0.472  -0.482
H  -1.602  1.555  1.482
H  -2.359  -0.647  0.804
   26
step   41
C  0.954  0.885  -0.920
C  1.846  -0.033  -0.000
C  0.897  -0.908  0.893
H  2.513  -0.709  -0.528
H  2.522  0.542  0.641
C  -0.036  -0.023  1.832
C  -0.934  0.916  0.899
H  -0.700  -0.667  2.415
H  0.519  0.653  2.533
C  -0.003  1.873  -0.022
H  -0.559  2.593  -0.628
H  0.630  2.448  0.658
C  0.018  0.000  -1.861
H  1.611  1.562  -1.552
C  -0.011  -1.766  -0.000
H  1.572  -1.510  1.496
C  -0.920  -0.928  -0.891
H  0.628  -2.435  -0.632
H  -0.612  -2.466  0.629
H  -1.610  -1.554  -1.511
C  -1.809  -0.002  0.047
H  -0.637  0.601  -2.506
H  0.666  -0.585  -2.519
H  -2.610  0.473  -0.482
H  -1.604  1.555  1.487
H  -2.357  -0.650  0.803
   26
step   42
C  0.955  0.886  -0.921
C  1.848  -0.034  0.000
C  0.898  -0.907  0.894
H  2.513  -0.712  -0.534
H  2.522  0.547  0.644
C  -0.037  -0.022  1.832
C  -0.935  0.917  0.898
H  -0.701  -0.668  2.421
H  0.517  0.647  2.538
C  -0.003  1.874  -0.022
H  -0.560  2.597  -0.630
H  0.632  2.453  0.658
C  0.019  -0.001  -1.862
H  1.612  1.558  -1.552
C  -0.011  -1.768  -0.000
H  1.571  -1.517  1.498
C  -0.921  -0.928  -0.892
H  0.629  -2.435  -0.633
H  -0.613  -2.466  0.630
H  -1.608  -1.558  -1.509
C  -1.810  -0.004  0.048
H  -0.637  0.603  -2.510
H  0.665  -0.589  -2.525
H  -2.615  0.474  -0.484
H  -1.605  1.556  1.492
H  -2.354  -0.653  0.801
   26
step   43
C  0.956  0.888  -0.923
C  1.849  -0.034  0.001
C  0.899  -0.906  0.895
H  2.514  -0.715  -0.541
H  2.522  0.552  0.647
C  -0.038  -0.021  1.833
C  -0.936  0.919  0.897
H  -0.701  -0.670  2.428
H  0.516  0.640  2.543
C  -0.003  1.874  -0.022
H  -0.560  2.601  -0.633
H  0.633  2.459  0.658
C  0.019  -0.001  -1.863
H  1.613  1.555  -1.553
C  -0.010  -1.770  0.000
H  1.570  -1.525  1.501
C  -0.922  -0.928  -0.893
H  0.630  -2.435  -0.633
H  -0.613  -2.466  0.631
H  -1.606  -1.562  -1.507
C  -1.811  -0.005  0.050
H  -0.636  0.605  -2.513
H  0.664  -0.593  -2.530
H  -2.621  0.476  -0.485
H  -1.607  1.557  1.497
H  -2.352  -0.656  0.800
   26
step   44
C  0.957  0.889  -0.924
C  1.850  -0.035  0.001
C  0.900  -0.905  0.896
H  2.514  -0.719  -0.547
H  2.521  0.557  0.650
C  -0.039  -0.020  1.833
C  -0.937  0.921  0.896
H  -0.701  -0.671  2.434
H  0.515  0.633  2.548
C  -0.002  1.874  -0.022
H  -0.561  2.605  -0.636
H  0.634  2.464  0.658
C  0.020  -0.002  -1.864
H  1.614  1.551  -1.553
C  -0.010  -1.772  0.001
H  1.569  -1.533  1.504
C  -0.923  -0.928  -0.894
H  0.630  -2.435  -0.633
H  -0.613  -2.466  0.632
H  -1.603  -1.566  -1.505
C  -1.812  -0.007  0.051
H  -0.635  0.607  -2.516
H  0.664  -0.598  -2.536
H  -2.626  0.478  -0.487
H  -1.608  1.558  1.502
H  -2.349  -0.659  0.798
   26
step   45
C  0.958  0.891  -0.926
C  1.852  -0.035  0.002
C  0.901  -0.903  0.897
H  2.514  -0.722  -0.554
H  2.521  0.563  0.653
C  -0.040  -0.019  1.833
C  -0.938  0.923  0.895
H  -0.701  -0.672  2.441
H  0.514  0.626  2.553
C  -0.002  1.875  -0.022
H  -0.563  2.608  -0.639
H  0.636  2.470  0.657
C  0.020  -0.003  -1.865
H  1.614  1.546  -1.554
C  -0.009  -1.774  0.001
H  1.568  -1.541  1.507
C  -0.924  -0.928  -0.895
H  0.631  -2.434  -0.634
H  -0.613  -2.466  0.632
H  -1.601  -1.570  -1.503